#------------------------------------------------------------------------------
#$Date: 2016-02-18 17:37:37 +0200 (Thu, 18 Feb 2016) $
#$Revision: 176729 $
#$URL: svn://www.crystallography.net/cod/cif/1/00/03/1000367.cif $
#------------------------------------------------------------------------------
#
# This file is available in the Crystallography Open Database (COD),
# http://www.crystallography.net/
#
# All data on this site have been placed in the public domain by the
# contributors.
#
data_1000367
loop_
_publ_author_name
'Laligant, Y'
'Ferey, G'
'El Ghozzi, M'
'Avignant, D'
_publ_section_title
;
Thermal study of Li3 Th F7 ionic conductor by neutron diffraction:
conduction pathways
;
_journal_coden_ASTM              EJSCE5
_journal_name_full
;
European Journal of Solid State Inorganic Chemistry
;
_journal_page_first              497
_journal_page_last               504
_journal_volume                  29
_journal_year                    1992
_chemical_formula_structural     'Li3 Th F7'
_chemical_formula_sum            'F7 Li3 Th'
_chemical_name_systematic        'Trilithium thorium fluoride'
_space_group_IT_number           130
_symmetry_cell_setting           tetragonal
_symmetry_space_group_name_Hall  '-P 4a 2ac'
_symmetry_space_group_name_H-M   'P 4/n c c :2'
_cell_angle_alpha                90
_cell_angle_beta                 90
_cell_angle_gamma                90
_cell_formula_units_Z            4
_cell_length_a                   6.23010(7)
_cell_length_b                   6.23010(7)
_cell_length_c                   13.0153(2)
_cell_volume                     505.2
_refine_ls_R_factor_all          0.034
_cod_original_sg_symbol_H-M      'P 4/n c c Z'
_cod_database_code               1000367
loop_
_symmetry_equiv_pos_as_xyz
x,y,z
1/2-x,y,1/2+z
x,1/2-y,1/2+z
1/2-x,1/2-y,z
y,x,1/2+z
1/2-y,x,z
y,1/2-x,z
1/2-y,1/2-x,1/2+z
-x,-y,-z
1/2+x,-y,1/2-z
-x,1/2+y,1/2-z
1/2+x,1/2+y,-z
-y,-x,1/2-z
1/2+y,-x,-z
-y,1/2+x,-z
1/2+y,1/2+x,1/2-z
loop_
_atom_site_label
_atom_site_type_symbol
_atom_site_symmetry_multiplicity
_atom_site_Wyckoff_symbol
_atom_site_fract_x
_atom_site_fract_y
_atom_site_fract_z
_atom_site_occupancy
_atom_site_attached_hydrogens
_atom_site_calc_flag
Th1 Th4+ 4 c 0.25 0.25 0.1891(1) 1. 0 d
F1 F1- 4 c 0.25 0.25 0.3725(2) 1. 0 d
F2 F1- 16 g 0.1645(2) -0.0369(2) 0.0783(1) 1. 0 d
F3 F1- 8 f 0.9385(2) 0.0615(2) 0.25 1. 0 d
Li1 Li1+ 16 g 0.330(1) -0.037(1) 0.4227(6) 0.75(5) 0 d
loop_
_atom_type_symbol
_atom_type_oxidation_number
Th4+ 4.000
F1- -1.000
Li1+ 1.000
