#------------------------------------------------------------------------------
#$Date: 2016-02-18 17:37:37 +0200 (Thu, 18 Feb 2016) $
#$Revision: 176729 $
#$URL: svn://www.crystallography.net/cod/cif/1/00/04/1000499.cif $
#------------------------------------------------------------------------------
#
# This file is available in the Crystallography Open Database (COD),
# http://www.crystallography.net/
#
# All data on this site have been placed in the public domain by the
# contributors.
#
data_1000499
loop_
_publ_author_name
'Fourquet, J L'
'Jacoboni, C'
'de Pape, R'
_publ_section_title
;
Les pyrochlores A B2 X6. Mise en evidence de l'occupation par le cation
A de nouvelles positions cristallographiques dans le groupe d'espace
FD3M
;
_journal_coden_ASTM              MRBUAC
_journal_name_full               'Materials Research Bulletin'
_journal_page_first              393
_journal_page_last               404
_journal_paper_doi               10.1016/0025-5408(73)90043-3
_journal_volume                  8
_journal_year                    1973
_chemical_formula_structural     'Rb Co (Cr F6)'
_chemical_formula_sum            'Co Cr F6 Rb'
_chemical_name_systematic        'Rubidium cobalt hexafluorochromate(III)'
_space_group_IT_number           227
_symmetry_cell_setting           cubic
_symmetry_space_group_name_Hall  '-F 4vw 2vw 3'
_symmetry_space_group_name_H-M   'F d -3 m :2'
_cell_angle_alpha                90
_cell_angle_beta                 90
_cell_angle_gamma                90
_cell_formula_units_Z            8
_cell_length_a                   10.277(5)
_cell_length_b                   10.277(5)
_cell_length_c                   10.277(5)
_cell_volume                     1085.4
_refine_ls_R_factor_all          0.11
_cod_original_sg_symbol_H-M      'F d -3 m Z'
_cod_database_code               1000499
loop_
_symmetry_equiv_pos_as_xyz
x,y,z
x,1/4-y,1/4-z
1/4-x,y,1/4-z
1/4-x,1/4-y,z
y,z,x
1/4-y,1/4-z,x
y,1/4-z,1/4-x
1/4-y,z,1/4-x
z,x,y
1/4-z,x,1/4-y
1/4-z,1/4-x,y
z,1/4-x,1/4-y
x,z,y
x,1/4-z,1/4-y
1/4-x,1/4-z,y
1/4-x,z,1/4-y
y,x,z
1/4-y,x,1/4-z
y,1/4-x,1/4-z
1/4-y,1/4-x,z
z,y,x
1/4-z,1/4-y,x
1/4-z,y,1/4-x
z,1/4-y,1/4-x
-x,-y,-z
-x,3/4+y,3/4+z
3/4+x,-y,3/4+z
3/4+x,3/4+y,-z
-y,-z,-x
3/4+y,3/4+z,-x
-y,3/4+z,3/4+x
3/4+y,-z,3/4+x
-z,-x,-y
3/4+z,-x,3/4+y
3/4+z,3/4+x,-y
-z,3/4+x,3/4+y
-x,-z,-y
-x,3/4+z,3/4+y
3/4+x,3/4+z,-y
3/4+x,-z,3/4+y
-y,-x,-z
3/4+y,-x,3/4+z
-y,3/4+x,3/4+z
3/4+y,3/4+x,-z
-z,-y,-x
3/4+z,3/4+y,-x
3/4+z,-y,3/4+x
-z,3/4+y,3/4+x
x,1/2+y,1/2+z
1/2+x,y,1/2+z
1/2+x,1/2+y,z
x,3/4-y,3/4-z
1/2+x,1/4-y,3/4-z
1/2+x,3/4-y,1/4-z
1/4-x,1/2+y,3/4-z
3/4-x,y,3/4-z
3/4-x,1/2+y,1/4-z
1/4-x,3/4-y,1/2+z
3/4-x,1/4-y,1/2+z
3/4-x,3/4-y,z
y,1/2+z,1/2+x
1/2+y,z,1/2+x
1/2+y,1/2+z,x
1/4-y,3/4-z,1/2+x
3/4-y,1/4-z,1/2+x
3/4-y,3/4-z,x
y,3/4-z,3/4-x
1/2+y,1/4-z,3/4-x
1/2+y,3/4-z,1/4-x
1/4-y,1/2+z,3/4-x
3/4-y,z,3/4-x
3/4-y,1/2+z,1/4-x
z,1/2+x,1/2+y
1/2+z,x,1/2+y
1/2+z,1/2+x,y
1/4-z,1/2+x,3/4-y
3/4-z,x,3/4-y
3/4-z,1/2+x,1/4-y
1/4-z,3/4-x,1/2+y
3/4-z,1/4-x,1/2+y
3/4-z,3/4-x,y
z,3/4-x,3/4-y
1/2+z,1/4-x,3/4-y
1/2+z,3/4-x,1/4-y
x,1/2+z,1/2+y
1/2+x,z,1/2+y
1/2+x,1/2+z,y
x,3/4-z,3/4-y
1/2+x,1/4-z,3/4-y
1/2+x,3/4-z,1/4-y
1/4-x,3/4-z,1/2+y
3/4-x,1/4-z,1/2+y
3/4-x,3/4-z,y
1/4-x,1/2+z,3/4-y
3/4-x,z,3/4-y
3/4-x,1/2+z,1/4-y
y,1/2+x,1/2+z
1/2+y,x,1/2+z
1/2+y,1/2+x,z
1/4-y,1/2+x,3/4-z
3/4-y,x,3/4-z
3/4-y,1/2+x,1/4-z
y,3/4-x,3/4-z
1/2+y,1/4-x,3/4-z
1/2+y,3/4-x,1/4-z
1/4-y,3/4-x,1/2+z
3/4-y,1/4-x,1/2+z
3/4-y,3/4-x,z
z,1/2+y,1/2+x
1/2+z,y,1/2+x
1/2+z,1/2+y,x
1/4-z,3/4-y,1/2+x
3/4-z,1/4-y,1/2+x
3/4-z,3/4-y,x
1/4-z,1/2+y,3/4-x
3/4-z,y,3/4-x
3/4-z,1/2+y,1/4-x
z,3/4-y,3/4-x
1/2+z,1/4-y,3/4-x
1/2+z,3/4-y,1/4-x
-x,1/2-y,1/2-z
1/2-x,-y,1/2-z
1/2-x,1/2-y,-z
-x,1/4+y,1/4+z
1/2-x,3/4+y,1/4+z
1/2-x,1/4+y,3/4+z
3/4+x,1/2-y,1/4+z
1/4+x,-y,1/4+z
1/4+x,1/2-y,3/4+z
3/4+x,1/4+y,1/2-z
1/4+x,3/4+y,1/2-z
1/4+x,1/4+y,-z
-y,1/2-z,1/2-x
1/2-y,-z,1/2-x
1/2-y,1/2-z,-x
3/4+y,1/4+z,1/2-x
1/4+y,3/4+z,1/2-x
1/4+y,1/4+z,-x
-y,1/4+z,1/4+x
1/2-y,3/4+z,1/4+x
1/2-y,1/4+z,3/4+x
3/4+y,1/2-z,1/4+x
1/4+y,-z,1/4+x
1/4+y,1/2-z,3/4+x
-z,1/2-x,1/2-y
1/2-z,-x,1/2-y
1/2-z,1/2-x,-y
3/4+z,1/2-x,1/4+y
1/4+z,-x,1/4+y
1/4+z,1/2-x,3/4+y
3/4+z,1/4+x,1/2-y
1/4+z,3/4+x,1/2-y
1/4+z,1/4+x,-y
-z,1/4+x,1/4+y
1/2-z,3/4+x,1/4+y
1/2-z,1/4+x,3/4+y
-x,1/2-z,1/2-y
1/2-x,-z,1/2-y
1/2-x,1/2-z,-y
-x,1/4+z,1/4+y
1/2-x,3/4+z,1/4+y
1/2-x,1/4+z,3/4+y
3/4+x,1/4+z,1/2-y
1/4+x,3/4+z,1/2-y
1/4+x,1/4+z,-y
3/4+x,1/2-z,1/4+y
1/4+x,-z,1/4+y
1/4+x,1/2-z,3/4+y
-y,1/2-x,1/2-z
1/2-y,-x,1/2-z
1/2-y,1/2-x,-z
3/4+y,1/2-x,1/4+z
1/4+y,-x,1/4+z
1/4+y,1/2-x,3/4+z
-y,1/4+x,1/4+z
1/2-y,3/4+x,1/4+z
1/2-y,1/4+x,3/4+z
3/4+y,1/4+x,1/2-z
1/4+y,3/4+x,1/2-z
1/4+y,1/4+x,-z
-z,1/2-y,1/2-x
1/2-z,-y,1/2-x
1/2-z,1/2-y,-x
3/4+z,1/4+y,1/2-x
1/4+z,3/4+y,1/2-x
1/4+z,1/4+y,-x
3/4+z,1/2-y,1/4+x
1/4+z,-y,1/4+x
1/4+z,1/2-y,3/4+x
-z,1/4+y,1/4+x
1/2-z,3/4+y,1/4+x
1/2-z,1/4+y,3/4+x
loop_
_atom_site_label
_atom_site_type_symbol
_atom_site_symmetry_multiplicity
_atom_site_Wyckoff_symbol
_atom_site_fract_x
_atom_site_fract_y
_atom_site_fract_z
_atom_site_occupancy
_atom_site_attached_hydrogens
_atom_site_calc_flag
Rb1 Rb1+ 32 e 0.352(5) 0.352(5) 0.352(5) 0.125 0 d
Rb2 Rb1+ 32 e 0.398(5) 0.398(5) 0.398(5) 0.125 0 d
Co1 Co2+ 16 c 0. 0. 0. 0.5 0 d
Cr1 Cr3+ 16 c 0. 0. 0. 0.5 0 d
F1 F1- 48 f 0.312 0.125 0.125 1. 0 d
loop_
_atom_type_symbol
_atom_type_oxidation_number
Rb1+ 1.000
Co2+ 2.000
Cr3+ 3.000
F1- -1.000
