#------------------------------------------------------------------------------
#$Date: 2015-01-27 21:58:39 +0200 (Tue, 27 Jan 2015) $
#$Revision: 130149 $
#$URL: svn://www.crystallography.net/cod/cif/1/00/04/1000453.cif $
#------------------------------------------------------------------------------
#
# This file is available in the Crystallography Open Database (COD),
# http://www.crystallography.net/
#
# All data on this site have been placed in the public domain by the
# contributors.
#
data_1000453
loop_
_publ_author_name
'Bulou, A'
'Nouet, J'
_publ_section_title
;
Structural phase transitions in ferroelastic Rb al F4: I. DSC, x-ray
powder diffraction investigations and neutron powder profile refinement
of the structures
;
_journal_coden_ASTM              JPSOAW
_journal_name_full               'Journal of Physics C'
_journal_page_first              183
_journal_page_last               196
_journal_paper_doi               10.1088/0022-3719/15/2/004
_journal_volume                  15
_journal_year                    1982
_chemical_formula_structural     'Rb (Al F4)'
_chemical_formula_sum            'Al F4 Rb'
_chemical_name_systematic        'Rubidium tetrafluoroaluminate'
_space_group_IT_number           123
_symmetry_cell_setting           tetragonal
_symmetry_Int_Tables_number      123
_symmetry_space_group_name_Hall  '-P 4 2'
_symmetry_space_group_name_H-M   'P 4/m m m'
_cell_angle_alpha                90
_cell_angle_beta                 90
_cell_angle_gamma                90
_cell_formula_units_Z            1
_cell_length_a                   3.6586(1)
_cell_length_b                   3.6586(1)
_cell_length_c                   6.3061(1)
_cell_volume                     84.4
_refine_ls_R_factor_all          0.0166
_cod_database_code               1000453
loop_
_symmetry_equiv_pos_as_xyz
x,y,z
-x,-y,z
-x,y,z
x,-y,z
-y,x,z
y,-x,z
y,x,z
-y,-x,z
-x,-y,-z
x,y,-z
x,-y,-z
-x,y,-z
y,-x,-z
-y,x,-z
-y,-x,-z
y,x,-z
loop_
_atom_site_aniso_label
_atom_site_aniso_B_11
_atom_site_aniso_B_12
_atom_site_aniso_B_13
_atom_site_aniso_B_22
_atom_site_aniso_B_23
_atom_site_aniso_B_33
Rb1 2.09(8) 0. 0. 2.09(8) 0. 5.6(1)
F1 1.01(7) 0. 0. 4.1(1) 0. 4.89(8)
F2 3.61 0. 0. 3.61 0. 1.48(8)
loop_
_atom_site_label
_atom_site_type_symbol
_atom_site_symmetry_multiplicity
_atom_site_Wyckoff_symbol
_atom_site_fract_x
_atom_site_fract_y
_atom_site_fract_z
_atom_site_occupancy
_atom_site_attached_hydrogens
_atom_site_calc_flag
Rb1 Rb1+ 1 d 0.5 0.5 0.5 1. 0 d
Al1 Al3+ 1 a 0. 0. 0. 1. 0 d
F1 F1- 2 f 0.5 0. 0. 1. 0 d
F2 F1- 2 g 0. 0. 0.2770(2) 1. 0 d
loop_
_atom_type_symbol
_atom_type_oxidation_number
Rb1+ 1.000
Al3+ 3.000
F1- -1.000
