#------------------------------------------------------------------------------
#$Date: 2015-01-27 21:58:39 +0200 (Tue, 27 Jan 2015) $
#$Revision: 130149 $
#$URL: svn://www.crystallography.net/cod/cif/1/00/82/1008212.cif $
#------------------------------------------------------------------------------
#
# This file is available in the Crystallography Open Database (COD),
# http://www.crystallography.net/
#
# All data on this site have been placed in the public domain by the
# contributors.
#
data_1008212
loop_
_publ_author_name
'Levy, J H'
'Taylor, J C'
'Waugh, A B'
_publ_section_title
;
Neutron powder structural studies of U F~6~, Mo F~6~ and W F~6~ at 77 K
;
_journal_coden_ASTM              JFLCAR
_journal_name_full               'Journal of Fluorine Chemistry'
_journal_page_first              29
_journal_page_last               36
_journal_paper_doi               10.1016/S0022-1139(00)81276-2
_journal_volume                  23
_journal_year                    1983
_chemical_formula_structural     'Mo F6'
_chemical_formula_sum            'F6 Mo'
_chemical_name_systematic        'Molybdenum fluoride'
_space_group_IT_number           62
_symmetry_cell_setting           orthorhombic
_symmetry_Int_Tables_number      62
_symmetry_space_group_name_Hall  '-P 2ac 2n'
_symmetry_space_group_name_H-M   'P n m a'
_cell_angle_alpha                90
_cell_angle_beta                 90
_cell_angle_gamma                90
_cell_formula_units_Z            4
_cell_length_a                   9.387(3)
_cell_length_b                   8.530(3)
_cell_length_c                   4.953(3)
_cell_volume                     396.6
_cod_database_code               1008212
loop_
_symmetry_equiv_pos_as_xyz
x,y,z
1/2+x,1/2-y,1/2-z
-x,1/2+y,-z
1/2-x,-y,1/2+z
-x,-y,-z
1/2-x,1/2+y,1/2+z
x,1/2-y,z
1/2+x,y,1/2-z
loop_
_atom_site_label
_atom_site_type_symbol
_atom_site_symmetry_multiplicity
_atom_site_Wyckoff_symbol
_atom_site_fract_x
_atom_site_fract_y
_atom_site_fract_z
_atom_site_occupancy
_atom_site_attached_hydrogens
_atom_site_calc_flag
Mo1 Mo6+ 4 c 0.1285(10) 0.25 0.0856(28) 1. 0 d
F1 F1- 4 c 0.0115(9) 0.25 -0.2086(19) 1. 0 d
F2 F1- 4 c -0.2033(28) 0.25 0.2441(18) 1. 0 d
F3 F1- 8 d 0.017(1) 0.0993(10) 0.2423(16) 1. 0 d
F4 F1- 8 d 0.2375(16) 0.1047(21) -0.0706(35) 1. 0 d
loop_
_atom_type_symbol
_atom_type_oxidation_number
Mo6+ 6.000
F1- -1.000
