#------------------------------------------------------------------------------
#$Date: 2016-02-14 16:26:36 +0200 (Sun, 14 Feb 2016) $
#$Revision: 176435 $
#$URL: svn://www.crystallography.net/cod/cif/1/50/93/1509323.cif $
#------------------------------------------------------------------------------
#
# This file is available in the Crystallography Open Database (COD),
# http://www.crystallography.net/
#
# All data on this site have been placed in the public domain by the
# contributors.
#
data_1509323
loop_
_publ_author_name
'Hoppe, R.'
'Odenthal, R.H.'
_publ_section_title
;
 Fluorargentate(II) der Alkalimetalle
;
_journal_name_full               'Monatshefte fuer Chemie (-108,1977)'
_journal_page_first              1340
_journal_page_last               1350
_journal_paper_doi               10.1007/BF00917190
_journal_volume                  102
_journal_year                    1971
_chemical_formula_sum            'Ag F3 Rb'
_chemical_name_systematic        'Rb Ag F3'
_space_group_IT_number           140
_symmetry_space_group_name_Hall  '-I 4 2c'
_symmetry_space_group_name_H-M   'I 4/m c m'
_cell_angle_alpha                90
_cell_angle_beta                 90
_cell_angle_gamma                90
_cell_formula_units_Z            4
_cell_length_a                   6.335
_cell_length_b                   6.335
_cell_length_c                   8.44
_cell_volume                     338.716
_citation_journal_id_ASTM        MOCHAP
_cod_data_source_file            silver1-2_238.cif
_cod_data_source_block           Ag1F3Rb1
_cod_original_formula_sum        'Ag1 F3 Rb1'
_cod_database_code               1509323
loop_
_symmetry_equiv_pos_as_xyz
x,y,z
-y,x,z
-x,-y,z
y,-x,z
x,-y,-z+1/2
y,x,-z+1/2
-x,y,-z+1/2
-y,-x,-z+1/2
-x,-y,-z
y,-x,-z
x,y,-z
-y,x,-z
-x,y,z-1/2
-y,-x,z-1/2
x,-y,z-1/2
y,x,z-1/2
x+1/2,y+1/2,z+1/2
-y+1/2,x+1/2,z+1/2
-x+1/2,-y+1/2,z+1/2
y+1/2,-x+1/2,z+1/2
x+1/2,-y+1/2,-z+1
y+1/2,x+1/2,-z+1
-x+1/2,y+1/2,-z+1
-y+1/2,-x+1/2,-z+1
-x+1/2,-y+1/2,-z+1/2
y+1/2,-x+1/2,-z+1/2
x+1/2,y+1/2,-z+1/2
-y+1/2,x+1/2,-z+1/2
-x+1/2,y+1/2,z
-y+1/2,-x+1/2,z
x+1/2,-y+1/2,z
y+1/2,x+1/2,z
loop_
_atom_site_label
_atom_site_type_symbol
_atom_site_fract_x
_atom_site_fract_y
_atom_site_fract_z
_atom_site_occupancy
_atom_site_U_iso_or_equiv
Ag1 Ag+2 0 0.5 0 1 0.0
F1 F-1 0 0.5 0.25 1 0.0
Rb1 Rb+1 0 0 0.25 1 0.0
F2 F-1 0.23 0.73 0 1 0.0
