#------------------------------------------------------------------------------
#$Date: 2016-02-14 16:26:36 +0200 (Sun, 14 Feb 2016) $
#$Revision: 176435 $
#$URL: svn://www.crystallography.net/cod/cif/1/50/92/1509203.cif $
#------------------------------------------------------------------------------
#
# This file is available in the Crystallography Open Database (COD),
# http://www.crystallography.net/
#
# All data on this site have been placed in the public domain by the
# contributors.
#
data_1509203
loop_
_publ_author_name
'Mueller, B.G.'
_publ_section_title
;
 Zur Struktur quaternaerer Fluoride mit zweiwertigem Silber: Me(I) Ag(II)
 Me(III) F6 mit Me(I) = Rb, Cs und Me(III) = Al, Ga, Fe
;
_journal_name_full               'Journal of Fluorine Chemistry'
_journal_page_first              317
_journal_page_last               329
_journal_paper_doi               10.1016/S0022-1139(00)81778-9
_journal_volume                  17
_journal_year                    1981
_chemical_formula_sum            'Ag Al Cs F6'
_chemical_name_systematic        'Cs Ag Al F6'
_space_group_IT_number           62
_symmetry_space_group_name_Hall  '-P 2ac 2n'
_symmetry_space_group_name_H-M   'P n m a'
_cell_angle_alpha                90
_cell_angle_beta                 90
_cell_angle_gamma                90
_cell_formula_units_Z            4
_cell_length_a                   7.38
_cell_length_b                   7.241
_cell_length_c                   10.352
_cell_volume                     553.196
_citation_journal_id_ASTM        JFLCAR
_cod_data_source_file            silver1-2_4.cif
_cod_data_source_block           Ag1Al1Cs1F6
_cod_original_cell_volume        553.1962
_cod_original_formula_sum        'Ag1 Al1 Cs1 F6'
_cod_database_code               1509203
loop_
_symmetry_equiv_pos_as_xyz
x,y,z
-x+1/2,-y,z+1/2
x+1/2,-y+1/2,-z+1/2
-x,y+1/2,-z
-x,-y,-z
x-1/2,y,-z-1/2
-x-1/2,y-1/2,z-1/2
x,-y-1/2,z
loop_
_atom_site_label
_atom_site_type_symbol
_atom_site_fract_x
_atom_site_fract_y
_atom_site_fract_z
_atom_site_occupancy
_atom_site_U_iso_or_equiv
Ag1 Ag+2 0.2835 0.25 0.7549 1 0.0
F4 F-1 0.1981 0.0332 0.9044 1 0.0
F1 F-1 0.0356 0.25 0.659 1 0.0
F3 F-1 0.1307 0.0104 0.1439 1 0.0
F2 F-1 0.4621 0.25 0.4928 1 0.0
Al1 Al+3 0 0 0 1 0.0
Cs1 Cs+1 0.4787 0.25 0.1327 1 0.0
