#------------------------------------------------------------------------------
#$Date: 2016-02-18 17:37:37 +0200 (Thu, 18 Feb 2016) $
#$Revision: 176729 $
#$URL: svn://www.crystallography.net/cod/cif/1/51/05/1510556.cif $
#------------------------------------------------------------------------------
#
# This file is available in the Crystallography Open Database (COD),
# http://www.crystallography.net/
#
# All data on this site have been placed in the public domain by the
# contributors.
#
data_1510556
loop_
_publ_author_name
'Engelmann, U.'
'Mueller, B.G.'
_publ_section_title
;
 Tetrafluoroaurate(III) der Lanthaniden M2F(AuF4)5 (M= La, Pr, Nd, Sm, Gd)
;
_journal_name_full
'Zeitschrift fuer Anorganische und Allgemeine Chemie'
_journal_page_first              51
_journal_page_last               61
_journal_paper_doi               10.1002/zaac.19905890106
_journal_volume                  589
_journal_year                    1990
_chemical_formula_sum            'Au5 F21 Gd2'
_chemical_name_systematic        'Gd2 F (Au F4)5'
_space_group_IT_number           92
_symmetry_space_group_name_Hall  'P 4abw 2nw'
_symmetry_space_group_name_H-M   'P 41 21 2'
_cell_angle_alpha                90
_cell_angle_beta                 90
_cell_angle_gamma                90
_cell_formula_units_Z            4
_cell_length_a                   8.1726
_cell_length_b                   8.1726
_cell_length_c                   25.59
_cell_volume                     1709.192
_citation_journal_id_ASTM        ZAACAB
_cod_data_source_file            gold_659.cif
_cod_data_source_block           Au5F21Gd2
_cod_database_code               1510556
loop_
_symmetry_equiv_pos_as_xyz
x,y,z
-y+1/2,x+1/2,z+1/4
-x,-y,z+1/2
y+1/2,-x+1/2,z+3/4
x+1/2,-y+1/2,-z+3/4
y,x,-z
-x+1/2,y+1/2,-z+1/4
-y,-x,-z+1/2
loop_
_atom_site_label
_atom_site_type_symbol
_atom_site_fract_x
_atom_site_fract_y
_atom_site_fract_z
_atom_site_occupancy
_atom_site_U_iso_or_equiv
F3 F-1 0.4558 0.1716 0.6862 1 0.0
Gd1 Gd+3 0.0668 0.4438 0.5023 1 0.0
F4 F-1 0.3268 0.5575 0.5024 1 0.0
F9 F-1 0.185 0.1034 0.1281 1 0.0
F6 F-1 0.7795 0.7795 0 1 0.0
F5 F-1 0.9077 0.2846 0.5558 1 0.0
F1 F-1 0.1722 0.4319 0.4157 1 0.0
F10 F-1 0.3107 0.9653 0.0417 1 0.0
Au3 Au+3 0.6443 0.5899 0.6575 1 0.0
F8 F-1 0.7164 0.0589 0.7469 1 0.0
F2 F-1 0.9201 0.2952 0.3383 1 0.0
Au2 Au+3 0.1761 0.7876 0.6106 1 0.0
F11 F-1 0.2221 0.4027 0.6975 1 0.0
Au1 Au+3 0.4411 0.4411 0 1 0.0
F7 F-1 0.5177 0.3597 0.1059 1 0.0
