#------------------------------------------------------------------------------
#$Date: 2016-02-18 17:37:37 +0200 (Thu, 18 Feb 2016) $
#$Revision: 176729 $
#$URL: svn://www.crystallography.net/cod/cif/1/51/38/1513882.cif $
#------------------------------------------------------------------------------
#
# This file is available in the Crystallography Open Database (COD),
# http://www.crystallography.net/
#
# All data on this site have been placed in the public domain by the
# contributors.
#
data_1513882
loop_
_publ_author_name
'Le Bail, Armel'
_publ_contact_author_address
; 
Universit\'e du Maine, Institut des Mol\'ecules et des Mat\'eriaux du Mans, 
CNRS UMR 6283, 72085 Le Mans, France
;
_publ_contact_author_email       armel.le_bail@univ-lemans.fr
_publ_contact_author_fax         '33 (0)2 43 83 35 06'
_publ_contact_author_name        'Armel Le Bail'
_publ_contact_author_phone       '33 (0)2 43 83 33 47'
_publ_section_title
;
 On two new K~2~FeF~5~ forms
;
_journal_issue                   1
_journal_name_full               'Powder Diffraction'
_journal_page_first              33
_journal_page_last               41
_journal_paper_doi               10.1017/S0885715613001334
_journal_volume                  29
_journal_year                    2014
_chemical_formula_moiety         'F5 Fe, 2(K)'
_chemical_formula_sum            'F5 Fe K2'
_chemical_formula_weight         229.05
_space_group_IT_number           12
_symmetry_cell_setting           monoclinic
_symmetry_space_group_name_Hall  '-C 2y'
_symmetry_space_group_name_H-M   'C 1 2/m 1'
_cell_angle_alpha                90.00000
_cell_angle_beta                 118.241(1)
_cell_angle_gamma                90.00000
_cell_formula_units_Z            4
_cell_length_a                   13.0919(2)
_cell_length_b                   5.7311(1)
_cell_length_c                   7.3114(1)
_cell_measurement_temperature    296
_cell_volume                     483.281(14)
_computing_structure_refinement  FULLPROF
_computing_structure_solution    ESPOIR
_diffrn_ambient_temperature      296
_diffrn_measurement_device_type  'Siemens D500'
_diffrn_measurement_method       'step scan'
_diffrn_radiation_monochromator  graphite
_diffrn_radiation_source         'X-ray tube'
_diffrn_radiation_type           CuK\a
_diffrn_radiation_wavelength     1.5418
_exptl_crystal_density_diffrn    3.148
_exptl_crystal_F_000             436.0
_pd_char_colour                  white
_pd_meas_2theta_range_inc        0.020000
_pd_meas_2theta_range_max        130.00000
_pd_meas_2theta_range_min        10.00000
_pd_meas_number_of_points        6001
_pd_proc_2theta_range_inc        0.020000
_pd_proc_2theta_range_max        129.8888
_pd_proc_2theta_range_min        9.8888
_pd_proc_ls_prof_R_factor        8.8137
_pd_proc_ls_prof_wR_expected     6.3929
_pd_proc_ls_prof_wR_factor       11.9213
_pd_proc_wavelength              1.540560
_refine_ls_goodness_of_fit_all   1.865
_refine_ls_number_parameters     55
_refine_ls_number_reflns         972
_refine_ls_number_restraints     0
_refine_ls_R_I_factor            5.7800
_iucr_refine_instructions_details
;
Fullprof .pcr file, modified to fit inside 80 columns
followed by the .dat file



COMM K2FeF5  monoclinic - NEW  + cubic phase KFeF3 ???
! Current global Chi2 (Bragg contrib.) =      3.565    
! Files => DAT-file: aphd-6.dat,  PCR-file: aphd-6
!Job Npr Nph Nba Nex Nsc Nor Dum Iwg Ilo Ias Res Ste Nre Cry Uni Cor Opt Aut
   0  12   2  22   7   0   1   1   0   0   1   0   0   0   0   0   0   0   0
!
!Ipr Ppl Ioc Mat Pcr Ls1 Ls2 Ls3 NLI Prf Ins Rpa Sym Hkl Fou Sho Ana
   0   0   1   0   2   0   4   0   0  -3   0  -1   1   0   2   1   1
!
! Lambda1  Lambda2    Ratio    Bkpos    Wdt    Cthm     muR   AsyLim   Rpolarz  2nd-muR -> Patt# 1
 1.540560 1.544330  0.50000   50.000 25.0000  0.7995  0.0000   90.00    0.0000  0.0000
!
!NCY  Eps  R_at  R_an  R_pr  R_gl     Thmin       Step       Thmax    PSD    Sent0
 40  0.01  0.10  0.10  0.10  0.60     10.0000   0.020000   130.0000   0.000   0.000
!
!2Theta/TOF/E(Kev)   Background  for Pattern#  1
        10.0400       654.3574        351.00
        10.7292       587.6461        361.00
        11.5625       533.1359        371.00
        12.5000       460.1394        381.00
        13.6458       363.1844        391.00
        15.8333       304.4049          0.00
        17.5000       247.1254          0.00
        20.2083       190.9012        401.00
        23.1250       166.8193        411.00
        26.5625       141.4477        421.00
        32.8125        91.2914        431.00
        36.4583       104.4144        441.00
        45.5208        82.4222        451.00
        48.2292        84.8383        461.00
        59.2708        68.0655        471.00
        75.2083        55.0008        481.00
        93.9583        46.6288        491.00
       104.6875        47.6934        501.00
       109.3750        51.6272        511.00
       122.3958        67.1100        521.00
       127.3958        71.0417        531.00
       129.8958        84.3571        541.00
! 
! Excluded regions (LowT  HighT) for Pattern#  1
        0.00       10.00
       13.89       14.20
       15.79       16.73
       17.48       19.29
       40.89       41.71
       46.71       47.19
      130.00      180.00
! 
!
      55    !Number of refined parameters
!
!  Zero    Code    SyCos    Code   SySin    Code  Lambda     Code MORE ->Patt# 1
  0.11119   21.0  0.00000    0.0  0.00000    0.0 0.000000    0.00   0
!-------------------------------------------------------------------------------
!  Data for PHASE number:   1  ==> Current R_Bragg for Pattern#  1:     5.78
!-------------------------------------------------------------------------------
 K2FeF5
!
!Nat Dis Ang Pr1 Pr2 Pr3 Jbt Irf Isy Str Furth       ATZ    Nvk Npr More
   7   0   0 1.0 1.0 0.0   0   0   0   0   0        464.237   0  12   1
!
!Jvi Jdi Hel Sol Mom Ter  Brind   RMua    RMub    RMuc   Jtyp  Nsp_Ref Ph_Shift N_Domains
   0   3   0   0   0   0  1.0000  0.0000  0.0000  0.0000    0      0      0      0
!
! Max_dst(dist) (angles)  Bond-Valence Calc.
      4.0000      3.5000        1  
C 2/M                    <--Space group symbol
!Atom   Typ       X        Y        Z     Biso       Occ     In Fin N_t Spc /Codes
K1     K+1     0.47729  0.00000  0.75164  1.32760   0.50000   0   0   0    0  
                121.00     0.00   131.00   141.00      0.00
K2     K+1     0.16610  0.00000  0.76972  1.31593   0.50000   0   0   0    0  
                151.00     0.00   161.00   171.00      0.00
FE     FE+3    0.18762  0.00000  0.28109  1.05357   0.50000   0   0   0    0  
                181.00     0.00   191.00   201.00      0.00
F1     F-1     0.25000  0.25000  0.50000  1.72213   0.50000   0   0   0    0  
                  0.00     0.00     0.00   211.00      0.00
F2     F-1     0.05712  0.00000  0.32768  1.51024   0.50000   0   0   0    0  
                221.00     0.00   231.00   241.00      0.00
F3     F-1     0.33973  0.00000  0.30689  1.89467   0.50000   0   0   0    0  
                251.00     0.00   261.00   271.00      0.00
F4     F-1     0.14040  0.23679  0.09036  1.93056   1.00000   0   0   0    0  
                281.00   291.00   301.00   311.00      0.00
!-------> Profile Parameters for Pattern #  1
!  Scale        Shape1      Bov      Str1      Str2      Str3   Strain-Model
 0.76968E-03   0.67020   0.00000   0.00000   0.00000   0.00000       0
    11.00000    31.000     0.000     0.000     0.000     0.000
!       U         V          W           X          Y        GauSiz   LorSiz Size-Model
   0.027392   0.000219   0.001312   0.000000   0.000000   0.000000   0.000000    0
     61.000     51.000     41.000      0.000      0.000      0.000      0.000
!     a          b         c        alpha      beta       gamma      #Cell Info
  13.091929   5.731062   7.311434  90.000000 118.241470  90.000000   
   71.00000   81.00000   91.00000    0.00000  101.00000    0.00000
!  Pref1    Pref2      Asy1     Asy2     Asy3     Asy4  
  1.00000  0.00000  0.00000  0.00000  0.00000  0.00000
     0.00     0.00     0.00     0.00     0.00     0.00
!Additional asymmetry parameters (S_L, D_L)
   0.04800    0.00   0.04800    0.00            Shape: Shp1 CShp1 & Shp2 CShp2
!-------------------------------------------------------------------------------
!  Data for PHASE number:   2  ==> Current R_Bragg for Pattern#  1:     8.18
!-------------------------------------------------------------------------------
 KFeF3 ???
!
!Nat Dis Ang Pr1 Pr2 Pr3 Jbt Irf Isy Str Furth       ATZ    Nvk Npr More
   3   0   0 1.0 1.0 0.0   0   0   0   0   0         71.991   0  12   0
!
P M -3 M                 <--Space group symbol
!Atom   Typ       X        Y        Z     Biso       Occ     In Fin N_t Spc /Codes
K1     K+1     0.50000  0.50000  0.50000  1.38600   0.02083   0   0   0    0  
                  0.00     0.00     0.00     0.00      0.00
FE     FE+2    0.00000  0.00000  0.00000  0.80755   0.02083   0   0   0    0  
                  0.00     0.00     0.00     0.00      0.00
F1     F-1     0.50000  0.00000  0.00000  1.72213   0.06249   0   0   0    0  
                  0.00     0.00     0.00   211.00      0.00
!-------> Profile Parameters for Pattern #  1
!  Scale        Shape1      Bov      Str1      Str2      Str3   Strain-Model
 0.11560E-02   0.97361   0.65380   0.00000   0.00000   0.00000       0
   321.00000   331.000   551.000     0.000     0.000     0.000
!       U         V          W           X          Y        GauSiz   LorSiz Size-Model
   0.041413  -0.034790   0.037977   0.000000   0.000000   0.000000   0.000000    0
      0.000      0.000    341.000      0.000      0.000      0.000      0.000
!     a          b         c        alpha      beta       gamma      #Cell Info
   4.158846   4.158846   4.158846  90.000000  90.000000  90.000000   
  111.00000  111.00000  111.00000    0.00000    0.00000    0.00000
!  Pref1    Pref2      Asy1     Asy2     Asy3     Asy4  
  1.00000  0.00000  0.00000  0.00000  0.00000  0.00000
     0.00     0.00     0.00     0.00     0.00     0.00
!Additional asymmetry parameters (S_L, D_L)
   0.04800    0.00   0.04800    0.00            Shape: Shp1 CShp1 & Shp2 CShp2
!  2Th1/TOF1    2Th2/TOF2  Pattern # 1
      10.000     130.000       1


.dat file for Fullprof :



   10.00    0.02   130.00  
   661.    641.    675.    656.    654.    676.    649.    599.    618.    654.
   640.    584.    596.    679.    649.    674.    617.    631.    667.    611.
   603.    627.    618.    631.    624.    625.    594.    569.    604.    606.
   600.    586.    592.    630.    576.    591.    580.    629.    629.    556.
   577.    577.    581.    562.    562.    615.    555.    557.    579.    609.
   569.    529.    571.    562.    580.    537.    606.    582.    563.    522.
   551.    520.    528.    563.    580.    595.    532.    546.    551.    519.
   532.    532.    523.    541.    561.    561.    533.    526.    545.    492.
   542.    527.    556.    538.    566.    510.    527.    527.    533.    510.
   534.    537.    547.    517.    511.    517.    512.    486.    519.    489.
   446.    510.    503.    511.    515.    475.    448.    474.    452.    457.
   455.    446.    508.    479.    511.    453.    490.    449.    452.    443.
   456.    449.    483.    433.    463.    475.    457.    453.    451.    461.
   460.    451.    479.    510.    434.    421.    432.    459.    462.    417.
   477.    424.    445.    447.    409.    423.    390.    402.    442.    408.
   407.    432.    456.    386.    449.    427.    444.    455.    431.    380.
   404.    410.    419.    401.    396.    415.    417.    412.    398.    386.
   393.    411.    403.    445.    399.    426.    430.    406.    408.    432.
   386.    408.    420.    432.    454.    451.    404.    456.    436.    457.
   483.    480.    534.    476.    486.    477.    483.    541.    471.    510.
   482.    456.    438.    430.    410.    379.    372.    396.    390.    365.
   373.    395.    387.    390.    391.    404.    386.    408.    386.    390.
   403.    394.    392.    436.    463.    440.    485.    521.    474.    497.
   554.    573.    588.    662.    666.    719.    717.    754.    813.    846.
   878.   1008.   1004.   1087.   1121.   1250.   1312.   1332.   1487.   1638.
  1894.   2037.   2462.   2938.   3418.   3576.   2929.   2139.   1462.   1105.
   973.    997.    941.    964.   1006.   1041.   1152.   1204.   1345.   1621.
  1812.   2372.   2697.   2410.   2026.   1361.    823.    564.    422.    413.
   368.    337.    349.    298.    331.    319.    349.    338.    346.    332.
   331.    347.    310.    311.    298.    289.    315.    300.    311.    297.
   312.    320.    298.    312.    322.    313.    319.    324.    294.    343.
   307.    312.    329.    306.    359.    315.    335.    347.    356.    334.
   353.    348.    379.    365.    366.    352.    401.    413.    352.    350.
   333.    322.    295.    335.    289.    294.    284.    297.    301.    289.
   309.    277.    280.    294.    304.    294.    285.    287.    296.    298.
   283.    319.    305.    292.    304.    289.    320.    307.    333.    326.
   317.    332.    348.    343.    370.    405.    452.    481.    496.    448.
   404.    345.    277.    254.    275.    278.    262.    280.    253.    268.
   247.    255.    261.    272.    264.    259.    298.    267.    238.    239.
   253.    245.    262.    245.    252.    242.    239.    263.    266.    254.
   238.    245.    269.    273.    273.    260.    290.    275.    253.    275.
   297.    267.    307.    287.    288.    297.    296.    304.    329.    325.
   316.    313.    323.    349.    351.    348.    339.    392.    354.    367.
   379.    326.    334.    306.    273.    330.    265.    273.    277.    283.
   245.    272.    255.    276.    262.    285.    270.    292.    286.    268.
   256.    284.    311.    279.    323.    317.    401.    360.    340.    376.
   333.    306.    305.    263.    276.    288.    295.    302.    297.    315.
   334.    347.    336.    387.    362.    417.    435.    394.    418.    505.
   446.    506.    488.    527.    587.    654.    759.    854.   1035.   1187.
  1206.   1086.    788.    637.    415.    321.    254.    226.    218.    232.
   198.    222.    227.    208.    207.    212.    180.    216.    232.    206.
   188.    224.    217.    189.    211.    212.    185.    198.    175.    193.
   192.    195.    205.    184.    193.    210.    204.    206.    216.    204.
   192.    194.    223.    215.    212.    209.    184.    212.    195.    203.
   202.    208.    197.    205.    197.    225.    228.    183.    203.    189.
   216.    215.    199.    196.    191.    211.    199.    221.    217.    199.
   211.    196.    185.    225.    199.    224.    244.    243.    236.    234.
   277.    238.    228.    250.    232.    264.    229.    215.    212.    195.
   206.    191.    211.    183.    185.    211.    168.    194.    209.    198.
   165.    182.    210.    183.    179.    166.    213.    168.    189.    172.
   185.    193.    196.    188.    190.    194.    168.    151.    156.    178.
   180.    193.    164.    173.    187.    156.    187.    210.    206.    188.
   172.    191.    170.    162.    201.    175.    177.    169.    179.    170.
   166.    185.    185.    164.    156.    176.    183.    176.    192.    150.
   178.    169.    170.    186.    164.    183.    183.    182.    150.    178.
   155.    185.    155.    186.    190.    163.    181.    170.    172.    161.
   208.    170.    171.    161.    172.    167.    172.    167.    174.    144.
   161.    157.    161.    169.    157.    164.    170.    167.    170.    183.
   168.    151.    148.    144.    159.    172.    171.    168.    175.    180.
   167.    154.    192.    183.    185.    179.    192.    210.    222.    211.
   232.    247.    278.    248.    271.    295.    302.    297.    378.    334.
   368.    436.    456.    463.    522.    524.    642.    729.    851.   1058.
  1299.   1530.   1334.   1071.    938.    729.    586.    442.    352.    288.
   276.    233.    195.    167.    158.    169.    180.    180.    162.    177.
   163.    157.    169.    151.    169.    173.    171.    182.    164.    147.
   159.    157.    196.    177.    166.    179.    167.    186.    208.    219.
   218.    239.    239.    212.    203.    165.    167.    182.    179.    168.
   176.    197.    196.    198.    192.    190.    195.    212.    237.    236.
   250.    236.    253.    272.    313.    282.    321.    314.    332.    388.
   407.    478.    551.    723.    881.    892.    762.    637.    534.    397.
   367.    236.    240.    196.    182.    177.    183.    206.    192.    176.
   183.    167.    164.    141.    180.    163.    148.    152.    166.    159.
   115.    142.    146.    150.    127.    158.    146.    134.    130.    160.
   153.    167.    165.    136.    141.    150.    146.    126.    156.    142.
   172.    153.    159.    144.    157.    168.    170.    158.    149.    173.
   167.    170.    176.    179.    185.    198.    186.    215.    252.    234.
   238.    262.    310.    336.    369.    461.    527.    514.    511.    596.
   626.    682.    749.    758.    861.    943.   1030.   1098.   1111.   1243.
  1428.   1592.   1960.   2284.   2717.   3348.   4199.   5319.   6399.   6548.
  5646.   4819.   4397.   3979.   3295.   3026.   3273.   3859.   4859.   6242.
  7676.   8258.   7023.   5344.   4246.   3239.   2115.   1071.    595.    398.
   301.    239.    251.    207.    198.    174.    170.    184.    175.    150.
   157.    155.    154.    175.    159.    151.    158.    126.    157.    131.
   140.    141.    144.    142.    144.    146.    115.    159.    131.    177.
   164.    134.    120.    121.    142.    136.    156.    162.    148.    148.
   146.    191.    173.    164.    190.    169.    192.    185.    223.    220.
   204.    266.    257.    287.    299.    304.    326.    339.    325.    377.
   429.    413.    490.    571.    662.    872.   1063.   1213.   1178.   1037.
   781.    676.    615.    429.    270.    214.    161.    190.    167.    147.
   154.    184.    129.    145.    164.    188.    153.    172.    156.    185.
   149.    189.    212.    185.    220.    217.    236.    250.    254.    247.
   256.    295.    336.    351.    397.    439.    493.    523.    558.    655.
   706.    863.    889.    929.    949.    966.   1027.    989.   1068.   1075.
  1048.   1127.   1251.   1362.   1598.   1832.   2238.   2823.   3745.   4522.
  4739.   4034.   3199.   2773.   2513.   2031.   1516.   1309.   1112.   1038.
   914.    870.    810.    779.    788.    784.    845.    930.   1098.   1275.
  1515.   1881.   2557.   3179.   3821.   3521.   2685.   1917.   1840.   1513.
   915.    474.    305.    208.    202.    146.    148.    149.    136.    146.
   127.    107.    125.    112.    124.    118.    128.    135.    113.    113.
   117.    124.    113.     98.    110.    120.    102.    109.    104.    119.
   107.     99.    103.    105.    102.    119.    102.    106.    103.    107.
   110.    100.    103.     97.     89.    125.     85.     97.     93.    110.
    96.     96.    106.     89.    103.     85.     89.    107.     95.     96.
   105.    103.     89.    112.    100.     99.    120.     93.    101.    123.
    87.    109.    105.     90.    109.    117.     84.    106.     92.    102.
    90.     96.    111.    100.     95.    105.     86.     84.     96.     95.
    87.    104.    111.    113.    110.    112.    103.    100.    110.     95.
   100.    103.    100.    102.    116.     94.     97.    103.    113.     90.
    91.     90.     80.    109.    102.    108.    121.    107.    119.    121.
   120.    123.    115.    126.    113.    132.    143.    128.    152.    161.
   145.    147.    145.    146.    187.    156.    155.    154.    192.    200.
   212.    238.    281.    320.    422.    553.    584.    549.    423.    380.
   344.    304.    221.    164.    160.    131.    120.    131.    106.    115.
   121.    114.    124.    116.    114.    131.    141.    151.    154.    165.
   195.    226.    279.    283.    312.    265.    216.    194.    246.    189.
   180.    195.    199.    156.    150.    148.    143.    131.    116.    105.
   109.    100.    110.    109.    110.    120.    118.    118.    139.    147.
   127.    119.    154.    164.    160.    144.    190.    187.    175.    180.
   142.    155.    176.    160.    168.    179.    202.    187.    193.    222.
   211.    239.    266.    268.    287.    382.    486.    542.    670.    654.
   603.    527.    447.    470.    360.    262.    229.    154.    132.    107.
    98.    101.     98.    103.    101.     96.     82.    100.     88.    121.
    90.     91.     85.    100.     87.    101.     93.    105.    103.     96.
    82.    103.    102.    106.     95.     93.    102.    115.    102.    107.
   123.    125.    121.    120.    133.    113.    150.    137.    135.    142.
   156.    159.    144.    173.    198.    207.    216.    298.    328.    391.
   449.    378.    327.    272.    276.    252.    225.    170.    163.    192.
   162.    170.    164.    217.    216.    192.    209.    229.    202.    196.
   219.    224.    166.    184.    158.    135.    136.    138.    129.    126.
   127.    135.    156.    137.    141.    142.    161.    157.    164.    186.
   157.    154.    154.    190.    187.    203.    217.    203.    147.    166.
   151.    145.    133.    132.    112.    112.    123.    109.    144.    130.
   136.    157.    154.    166.    165.    181.    139.    162.    145.    196.
   174.    189.    211.    273.    318.    411.    382.    342.    339.    283.
   272.    267.    242.    208.    184.    165.    154.    132.    167.    146.
   150.    177.    210.    196.    172.    159.    148.    156.    139.    113.
   119.    107.    108.    119.    106.    131.    124.    131.    154.    154.
   148.    153.    163.    165.    175.    156.    147.    149.    169.    171.
   149.    185.    181.    208.    200.    206.    163.    213.    225.    240.
   290.    311.    405.    549.    674.    790.    781.    706.    497.    467.
   480.    456.    397.    326.    291.    247.    284.    227.    197.    204.
   204.    204.    194.    198.    219.    210.    241.    285.    307.    400.
   459.    559.    582.    518.    407.    392.    331.    323.    312.    214.
   178.    149.    149.    147.    115.    143.    114.    120.     98.    122.
   118.    125.    122.    122.    128.    113.    127.    125.    126.    141.
   138.    127.    142.    163.    182.    178.    209.    199.    267.    240.
   266.    238.    228.    229.    190.    216.    218.    205.    193.    208.
   231.    226.    283.    320.    344.    403.    393.    466.    524.    599.
   616.    684.    722.    761.    832.    883.    985.   1137.   1288.   1642.
  2141.   2628.   3418.   4088.   4264.   3853.   3469.   3460.   3919.   4407.
  3777.   3072.   2485.   2356.   2288.   2305.   2115.   2157.   2420.   2799.
  3470.   4691.   6281.   7968.   8769.   7898.   6145.   4850.   4346.   4363.
  3769.   2754.   1679.   1062.    637.    443.    336.    269.    226.    177.
   209.    182.    136.    158.    164.    140.    131.    119.    146.    120.
   115.    125.    117.    120.    119.    122.    114.    104.    118.    118.
   115.    123.    121.    125.     94.    127.    136.    149.    123.    154.
   134.    133.    145.    146.    161.    167.    161.    164.    172.    175.
   190.    216.    197.    257.    296.    279.    324.    342.    335.    361.
   379.    415.    347.    307.    288.    267.    268.    245.    205.    189.
   155.    147.    134.    141.    138.    145.    122.    133.    101.    103.
   111.     97.    108.    100.    122.    118.    111.    110.    112.    113.
    90.    120.    120.    118.     97.     95.     90.    112.    115.    102.
   104.    101.    110.    128.    105.    125.    119.    119.    134.    124.
   178.    157.    191.    183.    128.    164.    141.    141.    185.    178.
   171.    173.    225.    213.    159.    161.    149.    155.    126.    143.
   107.     94.     80.    100.     75.    101.    102.     65.     99.     92.
   100.    106.    108.     93.     86.     77.     72.     78.     80.     76.
    77.     91.     82.     76.     95.     77.     91.     75.    100.    100.
   106.    101.     87.     88.     94.    111.    110.     92.    115.     99.
   115.    121.    119.    158.    150.    162.    141.    160.    128.    162.
   150.    160.    180.    157.    178.    213.    292.    303.    369.    489.
   452.    375.    276.    256.    275.    265.    267.    223.    160.    149.
   126.    123.     88.    118.    103.    114.     94.     97.    107.    112.
    91.     86.     89.     82.     89.    123.    104.    108.     98.     88.
   102.    106.    116.    135.    122.    135.    151.    191.    193.    213.
   230.    279.    324.    374.    364.    412.    377.    426.    429.    425.
   462.    551.    671.    868.   1058.   1457.   1875.   2261.   2448.   2287.
  1834.   1472.   1193.   1177.   1187.   1049.    817.    541.    332.    264.
   190.    135.    131.    119.    108.    105.     97.    106.     77.     86.
    76.     83.     95.     87.     90.     86.    103.     83.     75.     84.
    74.     79.     97.     85.     73.     65.     74.     86.     87.     73.
    86.     68.     81.     80.     74.     74.     70.     80.     74.     80.
    74.    102.     92.     75.     84.     73.     79.     89.     94.     72.
    81.     87.     99.     84.     75.     86.     72.     86.     91.     79.
    95.     83.     92.    106.    101.     99.     99.    133.    130.    129.
   142.    158.    172.    165.    178.    164.    188.    175.    163.    193.
   192.    241.    261.    343.    481.    568.    606.    613.    495.    413.
   388.    403.    385.    345.    266.    225.    243.    205.    167.    158.
   180.    174.    200.    180.    176.    172.    203.    213.    226.    216.
   232.    304.    357.    414.    589.    778.    908.   1064.    832.    691.
   521.    438.    530.    534.    480.    441.    336.    250.    204.    191.
   192.    176.    154.    150.    134.    137.    129.    144.    133.    119.
   131.     96.     99.    115.    118.    125.    114.    125.    129.    128.
   109.    100.    115.     94.    101.    101.     88.    101.     79.     86.
    73.     98.     76.     96.     87.     87.     81.     87.     86.     86.
    82.     76.     95.     97.     87.     91.    121.    110.    118.    123.
   151.    178.    149.    166.    134.    131.    137.    122.    126.    134.
   112.    113.    106.    108.    122.    137.    145.    130.    192.    195.
   208.    250.    233.    212.    172.    191.    163.    149.    150.    148.
   134.    122.    111.    108.    121.    114.    111.    112.    102.    116.
   139.    128.    133.    127.    127.    122.    113.    113.    130.    109.
   138.     98.    138.    113.    137.    144.    148.    189.    218.    214.
   202.    211.    248.    220.    234.    223.    212.    272.    266.    307.
   410.    506.    703.    823.    909.    924.    790.    620.    500.    491.
   557.    619.    574.    550.    474.    411.    382.    399.    398.    410.
   455.    458.    501.    602.    794.    995.   1051.   1055.    859.    767.
   611.    691.    748.    802.    756.    754.    710.    703.    701.    705.
   609.    634.    664.    737.    731.    753.    721.    739.    784.    966.
  1186.   1121.    919.    646.    507.    469.    518.    512.    516.    419.
   326.    241.    221.    162.    190.    175.    177.    196.    182.    193.
   198.    221.    223.    254.    283.    244.    312.    316.    315.    283.
   278.    254.    265.    274.    304.    327.    388.    438.    419.    410.
   310.    276.    283.    284.    323.    387.    419.    340.    304.    222.
   219.    200.    187.    190.    206.    168.    162.    152.    120.    106.
   107.    115.    114.    122.    135.    141.    131.    138.    130.    148.
   151.    167.    165.    159.    163.    182.    158.    191.    226.    268.
   321.    382.    506.    724.    776.    758.    608.    479.    412.    401.
   443.    459.    383.    337.    284.    219.    182.    147.    142.    112.
    96.     98.     97.    105.    108.    103.     88.     95.     91.    108.
   109.    102.    105.    124.    131.    142.    112.    139.    165.    177.
   152.    224.    223.    260.    262.    280.    279.    336.    396.    434.
   446.    558.    539.    598.    688.    659.    494.    406.    341.    297.
   311.    386.    353.    224.    206.    163.    149.    106.    131.    108.
   118.    104.    123.     93.    115.    126.    157.    127.    162.    171.
   187.    193.    160.    148.    132.    155.    143.    155.    166.    133.
   136.    123.    141.    119.    107.    130.    168.    155.    197.    208.
   322.    345.    434.    412.    377.    303.    239.    252.    254.    258.
   297.    332.    242.    213.    198.    205.    217.    202.    214.    238.
   201.    211.    230.    247.    296.    389.    467.    577.    737.    902.
   921.    795.    574.    438.    381.    368.    398.    476.    468.    364.
   274.    192.    136.    129.    152.    110.    108.    112.    116.    100.
   116.    117.    128.    154.    169.    223.    194.    233.    177.    147.
   137.    121.    139.    163.    161.    147.    123.     89.    122.    102.
   132.    175.    192.    175.    184.    190.    158.    149.    148.    143.
   127.    110.    135.    110.    118.     88.     93.     60.     71.     48.
    72.     69.     54.     51.     52.     60.     64.     48.     66.     64.
    53.     62.     64.     60.     72.     60.     69.     56.     70.     77.
    43.     67.     63.     66.     63.     56.     63.     57.     54.     63.
    53.     61.     55.     72.     60.     63.     50.     60.     62.     63.
    58.     66.     62.     53.     58.     71.     69.     75.     59.     77.
    88.     72.     85.     74.     85.     97.     88.     76.     84.     97.
    87.    108.    140.    138.    152.    146.    136.    129.    112.    143.
   122.    111.    126.    137.    135.    136.    166.    171.    209.    230.
   228.    201.    152.    136.    143.    163.    160.    180.    165.    142.
   113.    107.    117.     96.     88.     90.     97.     76.     71.     83.
    63.     56.     77.     57.     77.     94.     73.     65.     57.     77.
    75.     66.     71.     79.     55.     73.     88.     73.     76.     81.
    87.     66.     88.     71.     89.     95.     95.    107.    113.    127.
   114.    143.    135.    139.    149.    169.    184.    174.    145.    147.
   149.    157.    151.    158.    166.    135.    136.    131.    117.    106.
   114.     92.    107.     76.     79.     83.     65.     84.     81.     77.
    74.     68.     80.     64.     71.     72.     62.     64.     78.     79.
    56.     63.     62.     78.     74.     71.     51.     73.     74.     60.
    80.     75.     69.     68.     59.     76.     54.     88.     68.     71.
    79.     93.     81.     74.     96.    105.    106.     98.    105.    104.
    98.    119.    109.    116.    122.    132.    129.    149.    182.    194.
   207.    248.    221.    232.    225.    210.    195.    203.    190.    177.
   195.    159.    177.    154.    170.    147.    154.    140.    134.    148.
   137.    124.    147.    163.    176.    226.    227.    225.    225.    225.
   259.    254.    274.    315.    303.    392.    485.    606.    813.   1020.
  1252.   1341.   1208.    987.    761.    627.    625.    666.    807.    904.
   927.    844.    664.    444.    356.    353.    347.    378.    385.    336.
   329.    250.    197.    181.    174.    141.    162.    146.    150.    135.
   130.    124.    136.    126.    133.    159.    154.    135.    128.    161.
   161.    166.    179.    190.    181.    191.    173.    202.    188.    200.
   237.    244.    339.    388.    506.    686.    873.   1043.    915.    703.
   523.    420.    389.    411.    445.    515.    557.    469.    386.    367.
   276.    241.    211.    263.    299.    322.    400.    496.    660.    756.
   686.    516.    366.    294.    259.    280.    278.    339.    359.    363.
   299.    221.    173.    141.    138.    120.    121.    116.    124.     96.
    98.    102.     79.     98.    114.    112.    123.     99.    122.    131.
   137.    155.    187.    154.    214.    209.    186.    201.    188.    194.
   200.    233.    237.    253.    274.    310.    339.    391.    493.    523.
   598.    604.    608.    563.    551.    475.    404.    380.    409.    455.
   402.    435.    413.    376.    333.    304.    303.    305.    360.    413.
   448.    453.    480.    423.    372.    392.    496.    572.    662.    686.
   716.    570.    450.    388.    368.    373.    388.    410.    461.    454.
   454.    373.    324.    251.    229.    211.    175.    203.    187.    210.
   201.    170.    155.    121.    119.    104.    108.     91.    116.    116.
    95.     81.     81.     71.     74.     73.    103.     64.     66.     57.
    81.     74.     69.     63.     74.     48.     64.     73.     64.     78.
    83.     61.     68.     76.     63.     71.     63.     79.     77.     75.
    70.     50.     59.     70.     62.     72.     82.     57.     64.     54.
    69.     72.     54.     63.     64.     65.     81.     78.     79.     77.
    84.     82.     71.     61.     73.     72.     64.     71.     69.     81.
    67.     83.     65.     64.     68.     47.     69.     57.     61.     70.
    57.     79.     82.     76.     58.     53.     73.     76.     76.     91.
    86.     69.     84.     87.     92.     95.     83.     91.    109.    110.
   115.    144.    164.    225.    252.    277.    222.    192.    141.    110.
   102.    105.    124.    138.    141.    146.    110.     86.    102.     79.
    72.     65.     71.     70.     60.     66.     60.     81.     74.     80.
    74.     59.     73.     62.     73.     63.     65.     50.     58.     55.
    62.     57.     58.     67.     65.     50.     67.     62.     54.     71.
    67.     79.     80.     95.     76.     89.     73.     86.     86.     98.
    83.     82.     98.    115.    128.    142.    160.    227.    192.    189.
   152.    157.    119.    119.    114.    110.    133.    129.    153.    146.
   131.    115.    112.    114.    121.    130.    130.    155.    132.    147.
   124.    146.    170.    197.    229.    343.    376.    393.    348.    276.
   237.    233.    185.    234.    204.    248.    275.    266.    305.    249.
   211.    213.    161.    189.    173.    182.    193.    214.    212.    199.
   237.    210.    180.    189.    186.    201.    223.    249.    354.    414.
   439.    397.    311.    224.    193.    174.    146.    170.    187.    202.
   200.    183.    168.    149.     97.     96.     77.     69.     75.     74.
    67.     55.     63.     85.     77.     81.     82.     80.     81.     95.
    79.     74.     93.     68.     68.     62.     69.     84.     83.     74.
    86.     65.     67.     61.     71.     56.     63.     80.     78.     81.
    75.     92.    112.     88.    116.     95.    100.    126.    108.    106.
   114.    140.    151.    162.    181.    254.    298.    374.    403.    478.
   381.    266.    231.    141.    161.    153.    165.    177.    229.    236.
   233.    183.    139.    113.    102.     82.     79.     72.     71.     61.
    65.     59.     60.     86.     59.     72.     64.     70.     78.     71.
    97.     92.     83.     93.     97.     81.     82.     76.     62.     80.
    81.     87.    115.    112.    108.    123.     93.    123.     88.     71.
    65.     72.     83.     74.     76.     79.     75.     81.     79.     57.
    65.     63.     70.     59.     51.     61.     54.     47.     55.     60.
    62.     67.     61.     70.     51.     63.     54.     52.     53.     49.
    74.     43.     59.     63.     71.     65.     51.     43.     56.     64.
    69.     62.     70.     67.     75.     61.     66.     80.     61.     62.
    52.     76.     73.    103.     85.     94.     92.     91.     92.     87.
   106.    123.    136.    133.    170.    204.    263.    290.    329.    316.
   263.    206.    184.    179.    199.    224.    260.    271.    299.    309.
   275.    228.    187.    216.    260.    247.    290.    279.    253.    212.
   180.    183.    139.    108.    119.    124.    158.    132.    132.    102.
   131.    118.     86.     79.     68.     79.     61.     83.     75.     96.
    63.     65.     80.     61.     65.     53.     58.     52.     70.     68.
    62.     61.     62.     44.     62.     68.     67.     57.     56.     46.
    64.     57.     55.     48.     65.     48.     59.     68.     63.     63.
    86.     71.     75.     64.     69.     70.     72.     48.     61.     48.
    53.     56.     51.     64.     61.     83.     74.     74.     66.     46.
    71.     73.     68.     63.     95.     72.     84.     55.     80.     80.
    79.     82.     99.     80.    104.    123.    151.    172.    195.    209.
   160.    157.    133.    144.    137.    152.    151.    173.    179.    203.
   178.    193.    164.    175.    160.    204.    213.    195.    189.    195.
   165.    150.    144.    115.    124.    116.    112.    142.    144.    140.
   146.    137.    136.    166.    144.    189.    182.    207.    199.    201.
   175.    162.    163.    161.    207.    168.    214.    198.    195.    198.
   146.    137.    118.    133.    113.    135.    131.    155.    167.    148.
   149.    112.    117.    109.    110.     95.     85.     98.     97.    117.
   100.    105.     93.    114.     94.     80.     87.     79.     81.     95.
    90.     94.     78.     92.     92.     97.    104.    111.    125.    114.
   135.    161.    139.    183.    164.    178.    167.    157.    154.    144.
   132.    151.    148.    154.    197.    175.    198.    209.    247.    312.
   357.    458.    487.    485.    399.    373.    278.    281.    248.    261.
   272.    264.    287.    321.    327.    359.    402.    328.    274.    246.
   207.    197.    154.    191.    171.    185.    201.    217.    186.    208.
   184.    204.    196.    163.    143.    141.    110.    124.    121.    104.
   125.    120.    125.    123.    113.    124.    129.    104.    112.    101.
   118.    129.    133.    146.    162.    177.    216.    248.    218.    215.
   230.    179.    152.    147.    127.    129.    119.    131.    123.    152.
   130.    132.    115.    105.     96.    110.     75.     69.     69.     76.
    66.     78.     59.     83.     69.     59.     90.     63.     77.     81.
    81.     93.     77.     88.     87.     77.     73.     85.    111.    104.
    98.    114.    113.    116.    169.    183.    157.    166.    124.    139.
   136.    116.    116.    113.    122.    135.    118.    138.    174.    161.
   181.    180.    193.    208.    236.    166.    164.    122.    113.    112.
   116.    113.    118.    123.    136.    128.    137.    144.    120.    113.
   105.    110.    114.    118.    118.    104.    104.    107.    105.    128.
   151.    133.    158.    196.    191.    165.    162.    148.    130.    130.
   111.    106.    112.    121.    142.    139.    160.    161.    203.    182.
   203.    178.    178.    123.    169.    135.    118.    147.    134.    151.
   154.    132.    165.    152.    142.    151.    155.    180.    195.    185.
   244.    203.    244.    242.    237.    215.    245.    230.    185.    130.
   130.    142.    155.    134.    140.    132.    126.    135.    140.    145.
   124.    127.     91.     92.     79.     76.     89.     84.     63.     60.
    85.     63.     75.     55.     76.     66.     70.     48.     55.     68.
    51.     67.     72.     87.     57.     66.     60.     59.     72.     80.
    64.     59.     58.     68.     60.     58.     50.     48.     50.     78.
    67.     79.     67.     79.     61.     79.     66.     83.     80.     63.
    89.     76.    100.     83.    123.    157.    170.    146.    166.    128.
    96.    103.    122.     88.     98.    119.    107.    126.    118.    118.
   119.    111.    110.     79.     72.     83.     66.     86.     76.     74.
    77.     76.     89.     56.     71.     64.     77.     68.     67.     62.
    77.     62.     62.     61.     72.     67.     73.     76.     87.     77.
    93.     96.    105.    126.    130.    127.    147.    122.     95.     96.
    96.     93.     77.     75.     78.     85.     98.    108.    108.     93.
    83.     98.     77.     73.     84.     61.     83.     89.     91.     95.
    87.    100.    107.    123.    160.    127.    120.    141.    119.     90.
    77.     88.     92.     81.     94.     83.     93.    100.    106.    123.
   102.    129.     92.     99.     98.     79.    108.    100.    114.    108.
   127.    134.    144.    173.    163.    197.    150.    142.    155.    129.
    97.     86.     84.    103.     98.    112.    121.    120.    123.    130.
   122.    116.    118.     83.     94.     85.     77.     85.     93.     80.
    76.    105.    101.    105.    147.    145.    118.    101.     97.     83.
    74.     82.     74.     62.     83.     93.     80.     89.     93.    101.
    89.     93.     96.     94.     83.     80.     81.     76.     76.     97.
    83.     78.    108.     94.    121.    131.    144.    240.    241.    249.
   214.    171.    148.    119.    109.    117.     97.    100.    111.    116.
   118.    145.    125.    152.    124.    120.    108.    123.     91.     75.
    79.     93.     73.     98.    125.    120.    136.    170.    152.    160.
   163.    161.    148.    126.    149.    125.    135.    164.    174.    188.
   208.    208.    180.    160.    158.    123.    129.    116.    122.    113.
    90.    117.    112.    130.    128.    118.    125.     97.     97.     83.
    98.    101.    112.    127.    121.    134.    176.    167.    136.    151.
   104.     90.     95.     79.     99.     86.     79.     98.     87.     94.
   102.    119.    107.    132.     86.     96.     87.     83.     93.     95.
    82.     75.    103.     98.    100.     87.    106.    111.    124.    125.
   133.    152.    149.    140.    150.    140.    157.    150.    157.    167.
   119.    135.     96.    124.     98.    117.    103.    119.    109.    101.
   112.    124.    124.    103.    104.     84.     95.    105.    100.    105.
   100.    113.     88.     89.     79.     80.     74.     86.     87.     96.
    86.     94.    109.    104.    107.    128.    180.    156.    193.    167.
   168.    177.    148.    123.    114.    132.    110.    113.     87.    116.
   104.    114.    122.    117.    139.    123.    121.    129.    108.    121.
   130.    133.    159.    179.    163.    163.    126.    123.    130.     95.
   142.    119.    147.    148.    141.    152.    143.    141.    139.    116.
   112.     97.    107.     97.     75.     68.     82.     76.     90.     75.
    70.     93.     69.     79.     54.     77.     68.     70.     72.     85.
    76.     74.     74.     70.     70.     60.     62.     65.     57.     51.
    53.     46.     73.     68.     63.     71.     58.     57.     57.     55.
    49.     61.     60.     60.     61.     58.     41.     47.     66.     47.
    56.     39.     76.     48.     46.     56.     72.     57.     65.     66.
    85.     88.     77.     65.     70.     78.     66.     67.     66.     59.
    60.     63.     54.     46.     71.     60.     62.     75.     70.     64.
    83.     76.     69.     65.     63.     80.     63.     65.     71.     71.
    87.    115.     90.    106.     88.     86.     74.     65.     70.     82.
    71.     65.     84.     66.     85.     99.     98.     99.    106.    112.
   106.    100.    110.    120.     75.     78.     87.     74.     93.     92.
    83.    102.    116.     92.     75.     84.    104.     71.     60.     74.
    63.     48.     60.     73.     76.     69.     67.     73.     80.     63.
    68.     60.     43.     72.     58.     62.     71.     55.     77.     59.
    55.     50.     63.     42.     62.     69.     63.     57.     54.     73.
    58.     64.     56.     69.     51.     56.     56.     46.     65.     48.
    52.     64.     65.     56.     54.     58.     46.     61.     67.     65.
    48.     62.     63.     52.     61.     70.     66.     84.     85.     67.
    86.     73.     64.     45.     64.     62.     45.     44.     63.     56.
    60.     73.     60.     79.     71.     72.     76.     72.     64.     76.
    72.     52.     78.     88.     70.     94.     92.     86.     93.     98.
    75.     92.     87.     68.     73.     53.     80.     72.     72.     74.
    83.     90.     87.     98.     82.    106.     89.     95.     84.     77.
    69.     60.     66.     68.     56.     61.     66.     56.     73.     72.
    84.     73.     72.     72.     74.     83.     77.     91.     67.     68.
    72.     75.     92.     89.    102.    113.     91.    102.     83.     75.
    76.     69.     71.     95.     81.     85.     70.     70.     78.     78.
   101.     91.    112.     82.     92.     68.     79.     68.     71.     62.
    70.     82.     65.     68.     72.     70.     66.     62.     59.     42.
    87.     73.     86.     93.     72.     94.     88.    113.    135.     82.
    92.     96.     97.     76.    103.     96.    111.    115.    127.    125.
   142.    137.    165.    158.    159.    163.    154.    160.    153.    145.
   136.    155.    167.    155.    164.    142.    138.    122.    132.     96.
    97.    123.    106.    110.    105.     85.    100.    100.     91.     85.
   102.     95.     82.    111.     67.     89.     94.     87.     67.     68.
    92.     79.     78.     83.     81.     65.     72.     88.    104.     86.
    60.     74.     73.     74.     71.     79.     78.     87.     72.     86.
    52.     72.     62.     72.     84.     67.     87.     99.     94.     98.
    70.     89.    104.     92.    106.    124.    117.    132.    132.    154.
   159.    144.    123.    107.    131.    115.    101.    118.    121.    132.
   153.    144.    117.    140.    107.    137.    126.    104.    147.    138.
   114.    109.    108.    103.     87.    106.     95.     98.     90.     97.
    78.     76.     73.     80.     87.     68.     70.     55.     57.     77.
    86.     72.     74.     74.     58.     56.     69.     68.     65.     66.
    73.     72.     74.     88.     92.     95.    101.     80.     89.     80.
    70.     95.     75.     75.     85.     74.     84.     91.     95.    108.
   128.    127.     99.    112.     79.     81.     82.    101.     56.     71.
    63.     68.     75.     78.     79.     69.     80.     88.     70.     91.
    65.     53.     66.     76.     62.     64.     58.     57.     60.     61.
    53.     51.     60.     55.     55.     60.     63.     60.     66.     60.
    64.     67.     55.     54.     54.     51.     60.     57.     47.     56.
    59.     48.     59.     60.     69.     80.     70.     97.     66.     80.
    72.     70.     84.     79.     74.     97.     95.     96.    104.    141.
   133.    140.    129.    123.    113.    115.    102.    115.     97.     82.
    97.     84.     82.     76.     82.     65.     78.     73.     76.     91.
   102.     72.     78.     90.     71.     68.     67.     70.     64.     57.
    44.     50.     58.     67.     54.     63.     41.     52.     57.     57.
    51.     43.     51.     53.     53.     60.     52.     73.     56.     49.
    54.     51.     70.     65.     65.     59.     71.     66.     79.     93.
    75.     77.     80.     83.     88.    107.     99.    109.    139.    137.
   128.    135.    123.    127.    129.     90.     78.     96.     94.     76.
    82.     78.     82.     82.     90.    101.     94.     86.    106.     95.
   100.     86.     99.     67.     86.     69.     82.     66.     84.     79.
    62.     72.     67.     75.     84.     78.     93.     75.    103.    116.
   115.     95.     95.     91.    105.    137.    133.    179.    162.    178.
   185.    175.    144.    131.    118.     87.     95.     94.     83.     91.
    88.     73.     78.     96.     84.     93.    113.     89.    126.    104.
   105.    114.     80.     79.     80.     81.     68.     84.     68.     72.
    77.     67.     70.     63.     76.     61.     73.     71.     66.     68.
    67.     69.     69.     67.     60.     73.     77.     77.     86.     88.
    84.     91.     72.     67.     64.     61.     69.     80.     66.     57.
    67.     61.     73.     57.     75.     77.     79.     67.    102.    104.
   102.     98.    100.     95.     92.     79.     82.     79.     57.     71.
    70.     83.     73.     85.     64.     72.     73.     91.     84.    100.
    92.    102.     87.    114.    113.    127.    102.    116.    105.     88.
    95.    104.     80.     57.     70.     67.     49.     57.     69.     68.
    51.     54.     71.     60.     54.     72.     74.     74.     70.     60.
    68.     56.     50.     54.     50.     63.     54.     61.     58.     47.
    45.     52.     58.     55.     42.     51.     47.     57.     34.     61.
    61.     63.     56.     54.     53.     47.     46.     58.     62.     52.
    50.     40.     37.     45.     50.     57.     62.     51.     80.     43.
    55.     58.     57.     60.     60.     47.     58.     43.     60.     53.
    63.     65.     57.     55.     68.     77.     74.     69.     76.     77.
    73.     63.     74.     65.     72.     72.     52.     61.     46.     70.
    64.     63.     66.     58.     60.     57.     65.     58.     74.     50.
    57.     58.     71.     65.     67.     72.     67.     62.     68.     46.
    75.     69.     81.     73.     87.     77.     74.     62.     57.     66.
    77.     86.     72.     57.     70.     70.     73.     81.     88.     97.
    99.     81.     95.     94.    103.     97.     96.    102.    109.    110.
   107.     90.     98.     69.     93.     84.     89.     76.    121.    107.
   113.    148.    122.    110.     96.    111.     96.     89.    103.     87.
    84.     88.     77.     70.     87.     75.     77.     78.     74.     89.
   106.     95.     87.     76.     89.     81.     86.     91.     97.    111.
   120.    102.    106.    138.    113.    116.    122.    110.     89.    103.
    96.     90.    100.     93.     97.     96.    100.    119.    106.    108.
   113.    102.    116.    114.    104.     97.    101.    101.     85.     88.
    92.     95.     90.     94.    101.     99.    106.     93.    101.    123.
    94.    116.    125.    114.    118.    131.    153.    164.    177.    163.
   133.    145.    142.    119.    131.    112.    128.    125.    129.    120.
   111.    118.    105.    124.    111.     91.    131.    126.    127.    117.
   115.    131.    130.    151.    150.    126.    105.    134.    105.    110.
   105.    106.     86.     99.     91.     74.     88.     83.     81.     92.
    98.     92.     84.     99.     84.     84.    106.     90.     79.     87.
    90.     72.     85.    104.     86.     86.     72.     85.     84.     92.
   104.    101.     86.     77.     86.     69.     83.     73.     83.     58.
    78.     77.     74.     82.    103.     72.     87.     93.    101.    108.
    94.    113.    107.    126.    107.    129.    149.    123.    130.    155.
   206.    189.    242.    242.    260.    224.    221.    207.    175.    152.
   168.    159.    144.    167.    167.    148.    144.    154.    165.    171.
   168.    179.    154.    185.    181.    173.    147.    169.    164.    151.
   175.    168.    157.    153.    141.    141.    153.    173.    153.    131.
   168.    156.    159.    178.    165.    188.    174.    193.    188.    171.
   168.    181.    148.    155.    128.    143.    130.    133.    130.    119.
   100.    109.    106.    125.    123.    119.    133.    121.    128.    118.
   129.    127.    127.    117.    114.    118.    112.    113.    109.     90.
    95.    117.    114.    120.    107.     89.     85.     87.     74.     82.
    89.     88.     76.     84.     81.     88.     82.     82.     72.     72.
    72.     68.     74.     74.     81.     83.     68.     70.     81.     73.
    72.     82.     81.     81.     73.     76.     82.     79.     74.    101.
    85.     92.     79.    120.    112.     88.    105.    132.    135.    105.
   142.    118.    119.     99.    103.    120.    116.    108.    118.    103.
   104.     97.     93.     98.     78.     95.    115.     99.    107.    108.
   112.    125.    121.    105.    118.    114.    105.    118.    100.    112.
   113.    102.    103.     96.     98.     98.     89.     86.    106.     90.
   109.    126.    125.    126.    115.    113.    106.    110.    102.     86.
    98.     91.     97.     92.     87.     94.     76.     87.     91.     83.
    93.    113.     96.    112.    107.    110.    103.    103.    105.     98.
   111.     84.     61.     80.     86.     79.     75.     66.     79.     65.
    72.     74.     89.     80.     75.     78.     83.     80.     67.     76.
    96.     88.     88.     71.    100.     75.    109.     97.     79.     73.
    91.     86.     89.     71.     80.     88.     77.     63.     78.     93.
    88.     82.     80.     93.     85.     93.     86.     93.     88.     82.
    85.     69.     77.     97.     93.    114.     84.     97.     79.    101.
   120.    113.     92.    122.    101.    114.     90.    108.     96.    116.
   102.     80.    103.     93.     98.    102.    122.    119.    101.    118.
   117.    133.    129.    109.    124.    126.    160.    152.    115.    153.
   146.    135.    134.    137.    129.    135.    116.    117.    137.    121.
   129.    113.    119.    116.    118.    107.    117.    111.    107.    127.
   120.    115.    119.    147.    140.    122.    126.    115.    137.    128.
   113.    120.    128.    119.    109.    128.    105.    131.    115.    114.
    85.     91.    122.    103.    102.    140.    128.     83.    123.    115.
   115.    103.    100.    113.    113.    101.     89.     93.     93.     87.
    87.    107.     77.     95.     76.     96.     82.     90.     84.     80.
    78.     85.     82.     89.     82.     69.     73.     83.     75.     81.
    60.     89.     83.     85.     62.     87.     72.     70.     71.     82.
    65.     89.     71.     63.     66.     74.     70.     85.     61.     77.
    70.     81.     80.     56.     68.     80.     76.     77.     78.     67.
    82.     99.     82.     93.     79.    107.     92.     94.     99.     67.
    93.    102.     91.     90.     80.     87.     90.     87.     89.     79.
    79.     93.     87.     81.     76.     76.     97.     78.    101.     82.
    85.     94.    106.    108.    102.     93.     98.     85.     69.     94.
    75.     69.     87.     98.     78.     91.     80.     78.     87.     95.
   108.    116.     78.    112.     85.    113.    103.    112.    100.    123.
   138.    121.    126.    121.    122.    139.    127.    131.    116.    126.
   134.    114.    112.    118.    116.    119.    119.    135.    142.    157.
   139.    150.    152.    140.    145.    167.    129.    150.    132.    139.
   153.    131.    132.    120.    134.     98.    113.    122.    109.    121.
    90.    107.    116.    108.    106.    127.    102.    110.    127.    125.
   124.    131.    127.    113.    106.    137.    112.    135.    117.    126.
   109.    108.     99.    116.    103.    100.    101.    122.    110.    125.
   127.    126.    133.    142.    156.    141.    146.    159.    149.    165.
   157.    121.    105.     94.    118.    116.    117.     86.    118.    107.
   121.    107.    110.    118.    105.    112.    123.    127.    129.    121.
   187.    135.    156.    188.    198.    176.    185.    162.    156.    135.
   136.    131.     96.    114.    116.     91.     82.    105.     91.     93.
   100.     88.    109.     83.    103.     95.    100.    104.     98.     93.
    95.    136.    132.    111.    128.    112.    121.    113.    116.    106.
   107.    100.     93.    115.    105.     96.     89.     81.     95.     76.
    99.     98.     80.     71.     97.    108.     96.     87.     75.     81.
    80.    100.     95.     74.     87.     97.     91.     98.     83.     98.
   101.     84.     79.     91.    105.    100.    105.     93.     84.    113.
    86.     95.     88.     84.    104.     98.    102.    108.    113.    107.
    99.    101.    114.    103.     81.     91.    112.     99.    105.     74.
    99.    106.     92.    101.    105.    108.    116.    111.     93.    118.
   101.    104.    140.     99.    118.    123.    120.    109.    139.     99.
   115.    126.    109.    114.    146.    156.    146.    134.    146.    143.
   136.    173.    182.    193.    186.    214.    213.    255.    238.    225.
   242.    236.    244.    225.    229.    219.    230.    209.    208.    203.
   190.    185.    187.    178.    166.    190.    121.    158.    152.    147.
   124.    152.    135.    168.    137.    189.    142.    182.    143.    148.
   145.    161.    162.    164.    169.    164.    170.    151.    155.    157.
   161.    170.    179.    179.    156.    163.    167.    162.    141.    148.
   133.    115.    145.    124.     99.    114.    120.    113.    118.    110.
   118.    114.    124.    115.    140.    130.    115.    129.    130.    112.
    98.     


;
_cod_data_source_file            K2FeF5-form-IV.cif
_cod_data_source_block           K2FeF5-form-IV
_cod_original_sg_symbol_H-M      'C 2/m'
_cod_database_code               1513882
#BEGIN Tags that were not found in dictionaries:
_pd_proc_ls_prof_cr_factor       14.3083
_pd_proc_ls_prof_cwr_factor      17.0215
_pd_proc_ls_prof_cwr_expected    9.1279
_pd_proc_ls_prof_chi2            3.4774
_pd_proc_ls_prof_echi2           3.5401
#END Tags that were not found in dictionaries
loop_
_symmetry_equiv_pos_as_xyz
x,y,z
-x,y,-z
-x,-y,-z
x,-y,z
x+1/2,y+1/2,z
-x+1/2,y+1/2,-z
-x+1/2,-y+1/2,-z
x+1/2,-y+1/2,z
loop_
_atom_site_label
_atom_site_fract_x
_atom_site_fract_y
_atom_site_fract_z
_atom_site_U_iso_or_equiv
_atom_site_occupancy
_atom_site_adp_type
_atom_site_type_symbol
K1 0.4773(2) 0.00000 0.7516(4) 0.0168(8) 1.00000 Uiso K
K2 0.1661(3) 0.00000 0.7697(5) 0.0167(9) 1.00000 Uiso K
Fe 0.1876(2) 0.00000 0.2811(3) 0.0133(7) 1.00000 Uiso Fe
F1 0.25000 0.25000 0.50000 0.0218(19) 1.00000 Uiso F
F2 0.0571(5) 0.00000 0.3277(8) 0.019(2) 1.00000 Uiso F
F3 0.3397(5) 0.00000 0.3069(9) 0.024(2) 1.00000 Uiso F
F4 0.1404(4) 0.2368(7) 0.0904(7) 0.0245(15) 1.00000 Uiso F
loop_
_atom_type_symbol
_atom_type_scat_Cromer_Mann_a1
_atom_type_scat_Cromer_Mann_b1
_atom_type_scat_Cromer_Mann_a2
_atom_type_scat_Cromer_Mann_b2
_atom_type_scat_Cromer_Mann_a3
_atom_type_scat_Cromer_Mann_b3
_atom_type_scat_Cromer_Mann_a4
_atom_type_scat_Cromer_Mann_b4
_atom_type_scat_Cromer_Mann_c
_atom_type_scat_dispersion_real
_atom_type_scat_dispersion_imag
_atom_type_scat_source
K+1 7.95780 12.63310 7.49170 0.76740 6.35900 -0.00200 1.19150 31.91280 -4.99780
0.36500 1.06600
International_Tables_for_Crystallography_Vol.C(1991)_Tables_6.1.1.4_and_6.1.1.5
Fe+3 11.17640 4.61470 7.38630 0.30050 3.39480 11.67290 0.07240 38.55660 0.97070
-1.17900 3.20400
International_Tables_for_Crystallography_Vol.C(1991)_Tables_6.1.1.4_and_6.1.1.5
F-1 3.63220 5.27756 3.51057 14.73530 1.26064 0.44226 0.94071 47.34370 0.65340
0.06900 0.05300
International_Tables_for_Crystallography_Vol.C(1991)_Tables_6.1.1.4_and_6.1.1.5
loop_
_geom_angle_atom_site_label_1
_geom_angle_atom_site_label_2
_geom_angle_atom_site_label_3
_geom_angle
_geom_angle_site_symmetry_1
_geom_angle_site_symmetry_3
_geom_angle_publ_flag
F1 Fe F2 85.31(14) . . yes
F1 Fe F3 84.80(15) . . yes
F1 Fe F4 86.65(13) . . yes
F1 Fe F1 90.87(8) . 4_555 yes
F1 Fe F4 176.2(2) . 4_555 yes
F2 Fe F3 165.9(3) . . yes
F2 Fe F4 97.4(2) . . yes
F1 Fe F2 85.31(14) 4_555 . yes
F2 Fe F4 97.4(2) . 4_555 yes
F3 Fe F4 92.0(2) . . yes
F1 Fe F3 84.80(15) 4_555 . yes
F3 Fe F4 92.0(2) . 4_555 yes
F1 Fe F4 176.2(2) 4_555 . yes
F4 Fe F4 95.7(2) . 4_555 yes
F1 Fe F4 86.65(13) 4_555 4_555 yes
Fe F1 Fe 180.00 . 6_556 yes
loop_
_geom_bond_atom_site_label_1
_geom_bond_atom_site_label_2
_geom_bond_distance
_geom_bond_site_symmetry_2
_geom_bond_publ_flag
K1 F1 3.0185(19) . ?
K1 F1 3.0185(19) 4_555 ?
K1 F2 2.9160(9) 6_546 ?
K1 F2 2.9160(9) 6_556 ?
K1 F3 2.876(6) . ?
K1 F3 2.625(8) 2_656 ?
K1 F4 2.822(4) 5_546 ?
K1 F4 2.769(6) 6_546 ?
K1 F4 2.769(6) 7_556 ?
K1 F4 2.822(4) 8_556 ?
K2 F1 3.033(4) . ?
K2 F1 3.033(4) 4_555 ?
K2 F2 2.849(6) . ?
K2 F2 2.660(8) 2_556 ?
K2 F3 2.9138(14) 6_546 ?
K2 F3 2.9138(14) 6_556 ?
K2 F4 2.863(7) 1_556 ?
K2 F4 2.863(7) 4_556 ?
K2 F4 2.699(5) 6_546 ?
K2 F4 2.699(5) 7_556 ?
Fe F1 2.0111(14) . yes
Fe F2 1.894(8) . yes
Fe F3 1.909(8) . yes
Fe F4 1.831(4) . yes
Fe F1 2.0111(14) 4_555 yes
Fe F4 1.831(4) 4_555 yes
