#------------------------------------------------------------------------------
#$Date: 2016-02-18 17:37:37 +0200 (Thu, 18 Feb 2016) $
#$Revision: 176729 $
#$URL: svn://www.crystallography.net/cod/cif/1/51/38/1513881.cif $
#------------------------------------------------------------------------------
#
# This file is available in the Crystallography Open Database (COD),
# http://www.crystallography.net/
#
# All data on this site have been placed in the public domain by the
# contributors.
#
data_1513881
loop_
_publ_author_name
'Le Bail, Armel'
_publ_contact_author_address
; 
Universit\'e du Maine, Institut des Mol\'ecules et des Mat\'eriaux du Mans, 
CNRS UMR 6283, 72085 Le Mans, France
;
_publ_contact_author_email       armel.le_bail@univ-lemans.fr
_publ_contact_author_fax         '33 (0)2 43 83 35 06'
_publ_contact_author_name        'Armel Le Bail'
_publ_contact_author_phone       '33 (0)2 43 83 33 47'
_publ_section_title
;
 On two new K~2~FeF~5~ forms
;
_journal_issue                   1
_journal_name_full               'Powder Diffraction'
_journal_page_first              33
_journal_page_last               41
_journal_paper_doi               10.1017/S0885715613001334
_journal_volume                  29
_journal_year                    2014
_chemical_formula_moiety         'F5 Fe, 2(K)'
_chemical_formula_sum            'F5 Fe K2'
_chemical_formula_weight         229.05
_space_group_IT_number           62
_symmetry_cell_setting           orthorhombic
_symmetry_space_group_name_Hall  '-P 2ac 2n'
_symmetry_space_group_name_H-M   'P n m a'
_cell_angle_alpha                90.00000
_cell_angle_beta                 90.00000
_cell_angle_gamma                90.00000
_cell_formula_units_Z            4
_cell_length_a                   7.3964(2)
_cell_length_b                   5.6779(1)
_cell_length_c                   11.5445(3)
_cell_measurement_temperature    296
_cell_volume                     484.82(2)
_computing_structure_refinement  FULLPROF
_diffrn_ambient_temperature      296
_diffrn_measurement_device_type  'Siemens D500'
_diffrn_measurement_method       'step scan'
_diffrn_radiation_monochromator  graphite
_diffrn_radiation_source         'X-ray tube'
_diffrn_radiation_type           CuK\a
_diffrn_radiation_wavelength     1.5418
_exptl_crystal_density_diffrn    3.138
_exptl_crystal_F_000             436.0
_pd_char_colour                  white
_pd_meas_2theta_range_inc        0.020000
_pd_meas_2theta_range_max        130.00000
_pd_meas_2theta_range_min        10.00000
_pd_meas_number_of_points        6001
_pd_proc_2theta_range_inc        0.020000
_pd_proc_2theta_range_max        129.8764
_pd_proc_2theta_range_min        9.8764
_pd_proc_ls_prof_R_factor        8.0616
_pd_proc_ls_prof_wR_expected     5.9493
_pd_proc_ls_prof_wR_factor       10.4386
_pd_proc_wavelength              1.540560
_refine_ls_goodness_of_fit_all   1.755
_refine_ls_number_parameters     70
_refine_ls_number_reflns         972
_refine_ls_number_restraints     0
_refine_ls_R_I_factor            4.6781
_iucr_refine_instructions_details
;
Fullprof .pcr file, modified to fit inside 80 columns
followed by the .dat file


COMM K2FeF5  type Rb2CrF5   precurseur   +   new monoc
! Current global Chi2 (Bragg contrib.) =      3.103    
! Files => DAT-file: apk2fea-2.dat,  PCR-file: apk2fea-2
!Job Npr Nph Nba Nex Nsc Nor Dum Iwg Ilo Ias Res Ste Nre Cry Uni Cor Opt Aut
   0   5   2  37   3   0   1   1   0   0   1   0   0   0   0   0   0   0   0
!
!Ipr Ppl Ioc Mat Pcr Ls1 Ls2 Ls3 NLI Prf Ins Rpa Sym Hkl Fou Sho Ana
   0   0   1   0   2   0   4   0   0  -3   0  -1   1   0   2   1   1
!
! Lambda1  Lambda2    Ratio    Bkpos    Wdt    Cthm     muR   AsyLim   Rpolarz  2nd-muR -> Patt# 1
 1.540560 1.544330  0.50000   50.000 20.0000  0.7995  0.0000   90.00    0.0000  0.0000
!
!NCY  Eps  R_at  R_an  R_pr  R_gl     Thmin       Step       Thmax    PSD    Sent0
 20  0.01  0.20  0.20  0.20  0.20     10.0000   0.020000   130.0000   0.000   0.000
!
!2Theta/TOF/E(Kev)   Background  for Pattern#  1
        10.0400       566.6326        331.00
        10.9380       519.5009        341.00
        11.8750       467.6965        351.00
        12.7080       435.5002        361.00
        16.1460       369.4982        371.00
        16.8750       300.1080        381.00
        18.4380       239.2565        391.00
        22.7080       154.9882        401.00
        25.0000       145.7739        411.00
        26.8750       136.3435        421.00
        30.3120       198.0995        431.00
        32.1880       112.3806        441.00
        34.3750       103.9714        451.00
        36.2500        95.6373        461.00
        38.6460       112.6684        471.00
        40.8330       149.9320        481.00
        42.6040        89.5896        491.00
        45.5210       114.8197        501.00
        48.7500        89.5435        511.00
        51.2500       105.1197        521.00
        53.4380        86.4662        531.00
        55.8330       105.5034        541.00
        59.0620        86.3105        551.00
        61.2500        74.5563        561.00
        65.1040        77.9974        571.00
        68.9580        65.0747        581.00
        74.7920        69.8571        591.00
        78.4380        62.5136        601.00
        83.2290        67.2141        611.00
        87.6040        63.5972        621.00
        92.0830        52.0259        631.00
        95.9380        49.6836        641.00
       100.8330        52.0872        651.00
       107.3960        55.2724        661.00
       113.3330        65.4947        671.00
       124.4790        76.7061        681.00
       129.2710        73.4109        691.00
! 
! Excluded regions (LowT  HighT) for Pattern#  1
        0.00       10.00
       23.07       23.40
      130.00      180.00
! 
!
      70    !Number of refined parameters
!
!  Zero    Code    SyCos    Code   SySin    Code  Lambda     Code MORE ->Patt# 1
  0.12361   21.0  0.00000    0.0  0.00000    0.0 0.000000    0.00   0
!-------------------------------------------------------------------------------
!  Data for PHASE number:   1  ==> Current R_Bragg for Pattern#  1:     4.68
!-------------------------------------------------------------------------------
 K2FeF5 type Rb2CrF5
!
!Nat Dis Ang Pr1 Pr2 Pr3 Jbt Irf Isy Str Furth       ATZ    Nvk Npr More
   7   0   0 1.0 1.0 0.0   0   0   0   0   0        464.237   0   5   1
!
!Jvi Jdi Hel Sol Mom Ter  Brind   RMua    RMub    RMuc   Jtyp  Nsp_Ref Ph_Shift N_Domains
   0   3   0   0   0   0  1.0000  0.0000  0.0000  0.0000    0      0      0      0
!
! Max_dst(dist) (angles)  Bond-Valence Calc.
      4.0000      3.5000        1  
P N M A                  <--Space group symbol
!Atom   Typ       X        Y        Z     Biso       Occ     In Fin N_t Spc /Codes
K1     K+1     0.15782  0.25000  0.41418  1.98502   0.50000   0   0   0    0  
                121.00     0.00   131.00   141.00      0.00
K2     K+1     0.48725  0.25000  0.72835  1.35739   0.50000   0   0   0    0  
                151.00     0.00   161.00   171.00      0.00
FE     FE+3    0.66932  0.25000  0.43677  1.16419   0.50000   0   0   0    0  
                181.00     0.00   191.00   201.00      0.00
F1     F-1     0.00000  0.00000  0.00000  0.88967   0.50000   0   0   0    0  
                  0.00     0.00     0.00   211.00      0.00
F2     F-1     0.52363  0.25000  0.30504  3.22634   0.50000   0   0   0    0  
                221.00     0.00   231.00   241.00      0.00
F3     F-1     0.78233  0.25000  0.59028  2.87492   0.50000   0   0   0    0  
                251.00     0.00   261.00   271.00      0.00
F4     F-1     0.82568  0.01190  0.38691  2.16347   1.00000   0   0   0    0  
                281.00   291.00   301.00   311.00      0.00
!-------> Profile Parameters for Pattern #  1
!  Scale        Shape1      Bov      Str1      Str2      Str3   Strain-Model
 0.93005E-03   1.06275   0.00000   0.00000   0.00000   0.00000       0
    11.00000    31.000     0.000     0.000     0.000     0.000
!       U         V          W           X          Y        GauSiz   LorSiz Size-Model
   0.032984  -0.020465   0.016891   0.000000   0.000000   0.000000   0.000000    0
     61.000     51.000     41.000      0.000      0.000      0.000      0.000
!     a          b         c        alpha      beta       gamma      #Cell Info
   7.396400   5.677932  11.544531  90.000000  90.000000  90.000000   
   71.00000   81.00000   91.00000    0.00000    0.00000    0.00000
!  Pref1    Pref2      Asy1     Asy2     Asy3     Asy4  
  1.00000  0.00000  0.10547  0.04226  0.00000  0.00000
     0.00     0.00   101.00   111.00     0.00     0.00
!-------------------------------------------------------------------------------
!  Data for PHASE number:   2  ==> Current R_Bragg for Pattern#  1:     7.30
!-------------------------------------------------------------------------------
 K2FeF5 new
!
!Nat Dis Ang Pr1 Pr2 Pr3 Jbt Irf Isy Str Furth       ATZ    Nvk Npr More
   7   0   0 1.0 1.0 0.0   0   0   0   0   0        464.237   0   5   1
!
!Jvi Jdi Hel Sol Mom Ter  Brind   RMua    RMub    RMuc   Jtyp  Nsp_Ref Ph_Shift N_Domains
   0   3   0   0   0   0  1.0000  0.0000  0.0000  0.0000    0      0      0      0
!
! Max_dst(dist) (angles)  Bond-Valence Calc.
      4.0000      3.5000        1  
C 2/M                    <--Space group symbol
!Atom   Typ       X        Y        Z     Biso       Occ  In Fin N_t Spc /Co
K1     K+1     0.47784  0.00000  0.75154  1.37722   0.50000   0   0   0    0  
                  0.00     0.00     0.00     0.00      0.00
K2     K+1     0.16637  0.00000  0.77007  1.31158   0.50000   0   0   0    0  
                  0.00     0.00     0.00     0.00      0.00
FE     FE+3    0.18778  0.00000  0.28087  0.71976   0.50000   0   0   0    0  
                  0.00     0.00     0.00     0.00      0.00
F1     F-1     0.25000  0.25000  0.50000  2.09772   0.50000   0   0   0    0  
                  0.00     0.00     0.00     0.00      0.00
F2     F-1     0.05480  0.00000  0.32823  1.92400   0.50000   0   0   0    0  
                  0.00     0.00     0.00     0.00      0.00
F3     F-1     0.34267  0.00000  0.30778  2.05201   0.50000   0   0   0    0  
                  0.00     0.00     0.00     0.00      0.00
F4     F-1     0.13838  0.23985  0.08869  1.11105   1.00000   0   0   0    0  
                  0.00     0.00     0.00     0.00      0.00
!-------> Profile Parameters for Pattern #  1
!  Scale        Shape1      Bov      Str1      Str2      Str3   Strain-Model
 0.60586E-04   1.06003   0.00000   0.00000   0.00000   0.00000       0
   321.00000     0.000     0.000     0.000     0.000     0.000
!       U         V          W           X          Y        GauSiz LorSiz  Size
   0.033460  -0.020271   0.023541   0.000000   0.000000   0.000000   0.000000  0
      0.000      0.000    701.000      0.000      0.000      0.000      0.000
!     a          b         c        alpha      beta       gamma      #Cell Info
  13.085300   5.727878   7.307796  90.000000 118.244293  90.000000   
    0.00000    0.00000    0.00000    0.00000    0.00000    0.00000
!  Pref1    Pref2      Asy1     Asy2     Asy3     Asy4  
  1.00000  0.00000  0.10292  0.04245  0.00000  0.00000
     0.00     0.00     0.00     0.00     0.00     0.00
!  2Th1/TOF1    2Th2/TOF2  Pattern # 1
      10.000     130.000       1



.dat file for Fullprof :


     10.00     0.02   130.00
   557.    567.    534.    585.    582.    574.    572.    533.    591.    582.
   548.    527.    518.    538.    579.    583.    516.    581.    541.    575.
   521.    533.    514.    551.    589.    549.    538.    538.    558.    527.
   581.    523.    520.    562.    556.    558.    548.    498.    518.    511.
   532.    544.    530.    551.    565.    521.    569.    491.    507.    524.
   493.    523.    485.    533.    470.    487.    470.    457.    548.    541.
   531.    526.    516.    483.    489.    519.    513.    502.    493.    494.
   461.    508.    484.    476.    505.    499.    440.    478.    451.    488.
   479.    497.    494.    441.    493.    496.    466.    479.    502.    491.
   453.    453.    474.    467.    463.    434.    490.    516.    471.    472.
   481.    444.    469.    485.    445.    448.    489.    485.    436.    429.
   496.    446.    433.    428.    454.    479.    466.    474.    431.    474.
   451.    447.    430.    462.    478.    458.    418.    435.    478.    413.
   427.    459.    446.    407.    466.    441.    445.    433.    447.    457.
   400.    471.    445.    427.    437.    437.    433.    381.    419.    410.
   427.    434.    416.    417.    423.    467.    421.    418.    421.    413.
   426.    422.    396.    454.    436.    414.    440.    410.    393.    401.
   421.    400.    417.    372.    379.    399.    432.    372.    418.    438.
   402.    429.    427.    423.    435.    426.    441.    430.    447.    471.
   470.    456.    489.    497.    537.    513.    605.    585.    628.    592.
   607.    619.    674.    623.    696.    641.    673.    734.    810.    884.
   856.    905.   1034.   1182.   1262.   1440.   1582.   1910.   1935.   1612.
  1197.    862.    692.    626.    578.    527.    531.    508.    459.    416.
   477.    457.    505.    536.    462.    418.    482.    444.    485.    487.
   446.    480.    448.    477.    493.    465.    482.    520.    475.    487.
   540.    521.    561.    594.    605.    649.    658.    676.    682.    775.
   724.    760.    871.    894.    939.    978.   1140.   1234.   1329.   1511.
  1700.   2081.   2428.   2870.   3006.   2761.   2048.   1511.    977.    778.
   583.    566.    526.    523.    496.    479.    450.    401.    469.    442.
   420.    435.    375.    392.    390.    387.    428.    367.    418.    418.
   389.    391.    428.    385.    406.    418.    367.    373.    370.    386.
   417.    393.    399.    426.    348.    396.    369.    400.    390.    392.
   359.    375.    340.    352.    374.    380.    382.    375.    387.    438.
   352.    385.    386.    344.    346.    341.    336.    323.    340.    322.
   327.    333.    352.    337.    322.    322.    313.    285.    298.    328.
   278.    301.    336.    292.    267.    325.    307.    278.    284.    298.
   330.    328.    305.    337.    316.    325.    307.    356.    352.    360.
   399.    394.    504.    525.    524.    559.    621.    557.    519.    424.
   373.    305.    290.    269.    272.    252.    316.    282.    272.    260.
   257.    259.    247.    282.    279.    265.    263.    247.    226.    249.
   256.    263.    247.    210.    203.    250.    234.    264.    250.    253.
   222.    230.    227.    236.    244.    238.    232.    226.    222.    221.
   212.    193.    230.    254.    232.    240.    229.    260.    226.    230.
   235.    235.    250.    206.    238.    231.    214.    216.    230.    234.
   229.    231.    212.    210.    237.    205.    226.    239.    248.    236.
   267.    247.    251.    240.    249.    225.    265.    278.    268.    287.
   343.    315.    256.    315.    307.    327.    329.    337.    340.    335.
   368.    434.    439.    496.    543.    623.    657.    706.    856.   1003.
  1194.   1206.   1243.   1067.    870.    712.    518.    438.    407.    389.
   330.    351.    345.    323.    308.    311.    284.    301.    265.    281.
   308.    265.    285.    273.    269.    272.    247.    264.    265.    292.
   291.    275.    283.    296.    287.    277.    292.    280.    308.    295.
   284.    296.    295.    285.    304.    277.    266.    243.    242.    297.
   250.    278.    276.    264.    256.    239.    262.    269.    296.    288.
   241.    309.    325.    314.    342.    338.    335.    388.    393.    433.
   530.    483.    614.    679.    733.    836.    970.   1083.   1260.   1587.
  1802.   2169.   2665.   3188.   3646.   3599.   3276.   2385.   1696.   1102.
   804.    596.    500.    405.    381.    290.    339.    268.    256.    264.
   233.    240.    223.    254.    217.    224.    210.    203.    213.    210.
   184.    194.    194.    203.    205.    189.    214.    188.    196.    203.
   196.    188.    197.    207.    162.    190.    162.    175.    183.    180.
   175.    170.    189.    166.    187.    169.    162.    179.    195.    155.
   160.    160.    170.    188.    167.    151.    162.    169.    182.    176.
   147.    152.    159.    179.    163.    155.    174.    143.    153.    151.
   159.    146.    160.    166.    164.    163.    167.    171.    174.    193.
   196.    195.    191.    151.    186.    187.    182.    165.    180.    168.
   184.    191.    264.    379.    458.    485.    416.    310.    266.    219.
   147.    165.    155.    156.    150.    156.    154.    188.    159.    152.
   163.    146.    164.    166.    172.    128.    128.    143.    142.    139.
   149.    151.    151.    176.    152.    168.    132.    177.    146.    163.
   165.    183.    170.    203.    179.    186.    209.    209.    239.    221.
   220.    195.    170.    189.    167.    159.    176.    151.    169.    173.
   157.    178.    223.    219.    207.    196.    204.    214.    218.    224.
   186.    176.    159.    164.    159.    163.    147.    141.    123.    175.
   150.    161.    137.    132.    148.    164.    147.    163.    186.    226.
   217.    217.    225.    207.    198.    189.    219.    212.    242.    256.
   329.    330.    361.    387.    410.    527.    653.    766.    967.   1010.
  1206.   1104.    928.    794.    636.    502.    349.    364.    295.    259.
   226.    238.    219.    208.    209.    196.    184.    199.    201.    164.
   207.    157.    206.    174.    187.    195.    180.    194.    154.    214.
   167.    199.    172.    185.    202.    197.    215.    202.    215.    210.
   196.    223.    219.    194.    201.    194.    151.    178.    167.    160.
   149.    164.    182.    194.    170.    158.    191.    181.    170.    154.
   158.    168.    155.    166.    156.    158.    161.    172.    169.    175.
   169.    161.    170.    147.    190.    171.    163.    216.    169.    171.
   209.    171.    185.    198.    162.    204.    161.    180.    183.    191.
   180.    196.    184.    203.    215.    219.    204.    209.    202.    221.
   215.    218.    242.    221.    265.    282.    263.    263.    320.    356.
   353.    379.    390.    397.    483.    494.    596.    700.    851.    889.
  1012.   1102.   1231.   1301.   1447.   1550.   1691.   1843.   2218.   2563.
  3050.   3686.   4572.   5424.   6895.   8575.   9087.   8342.   6757.   5535.
  4408.   3152.   2123.   1487.   1135.   1041.    885.    810.    736.    765.
   694.    697.    671.    702.    697.    750.    747.    761.    984.    965.
  1077.   1217.   1327.   1564.   1872.   2383.   2860.   3525.   4144.   4561.
  4390.   3989.   3932.   3925.   4202.   4349.   4374.   4014.   3294.   2795.
  2308.   1849.   1396.   1000.    849.    718.    675.    646.    567.    581.
   501.    540.    516.    502.    474.    471.    452.    458.    453.    432.
   411.    343.    382.    399.    415.    407.    407.    425.    439.    412.
   418.    403.    399.    377.    394.    428.    432.    445.    505.    485.
   477.    609.    636.    743.    812.   1059.   1332.   1523.   1634.   1520.
  1362.   1093.    900.    750.    616.    483.    376.    357.    333.    331.
   278.    298.    279.    279.    276.    277.    244.    270.    265.    266.
   300.    266.    268.    281.    298.    280.    313.    307.    370.    350.
   399.    447.    510.    521.    500.    491.    485.    451.    467.    508.
   479.    459.    509.    390.    416.    393.    409.    421.    404.    427.
   453.    395.    352.    360.    429.    363.    365.    321.    318.    306.
   380.    375.    419.    391.    476.    499.    572.    531.    587.    546.
   627.    619.    732.    790.    874.   1063.   1335.   1671.   2023.   2600.
  3235.   3887.   3460.   2633.   2135.   1935.   1556.   1074.    684.    511.
   386.    330.    317.    313.    275.    287.    251.    226.    246.    236.
   231.    197.    180.    182.    196.    197.    208.    190.    184.    206.
   193.    163.    186.    182.    199.    200.    178.    198.    195.    202.
   183.    206.    208.    223.    248.    222.    244.    260.    268.    259.
   284.    288.    295.    334.    332.    366.    438.    476.    596.    649.
   741.    999.   1208.   1475.   1821.   2045.   1933.   1793.   1488.   1361.
  1107.    925.    714.    595.    467.    432.    407.    394.    371.    386.
   374.    383.    344.    372.    376.    402.    345.    318.    350.    323.
   337.    327.    343.    339.    352.    341.    354.    388.    374.    407.
   509.    580.    677.    815.    968.   1101.   1087.    978.    887.    798.
   660.    594.    440.    330.    287.    267.    219.    197.    193.    158.
   171.    151.    170.    157.    126.    129.    127.    160.    156.    126.
   138.    136.    139.    134.    122.    126.    135.    126.    140.    140.
   141.    128.    136.    129.    151.    108.    126.    124.    118.    132.
   121.    125.    117.    130.    121.    129.    136.    110.    131.    147.
   174.    166.    187.    169.    144.    143.    147.    140.    136.    131.
   102.    115.    120.    130.    112.    133.    107.    131.    118.    126.
   113.    152.    151.    166.    162.    187.    183.    189.    201.    189.
   187.    159.    161.    131.    126.    115.    139.    136.    127.    114.
   115.    107.    114.    108.    113.    108.    150.    118.    123.    126.
   114.    121.    109.    124.    115.    140.    115.    108.    149.    135.
   130.    149.    131.    135.    133.    129.    102.    118.    122.     88.
   133.    108.    112.     95.    124.    115.    107.    102.    100.     92.
    95.    132.    110.    116.    115.    114.    102.    124.    108.    119.
   111.    110.    133.    128.    116.    134.    114.    140.    109.    125.
   145.    147.    163.    144.    157.    133.    145.    200.    201.    173.
   221.    249.    255.    304.    310.    363.    365.    344.    344.    364.
   444.    454.    479.    518.    621.    741.    881.   1090.   1385.   1697.
  1979.   2004.   1992.   1785.   1488.   1315.   1116.    966.    745.    520.
   432.    356.    273.    262.    234.    216.    204.    178.    180.    183.
   154.    153.    130.    146.    159.    158.    139.    117.    134.    166.
   119.    136.    136.    130.    123.    143.    151.    158.    131.    122.
   111.    122.    131.    133.    145.    112.    139.    128.    124.    127.
   140.    139.    134.    121.    147.    136.    130.    122.    148.    144.
   151.    142.    142.    149.    125.    149.    125.    139.    137.    157.
   146.    153.    155.    158.    168.    154.    153.    175.    175.    151.
   165.    170.    182.    162.    163.    159.    154.    170.    216.    168.
   180.    191.    193.    204.    204.    245.    218.    263.    254.    304.
   320.    324.    344.    372.    397.    436.    502.    553.    588.    732.
   836.   1075.   1324.   1757.   2051.   2516.   2587.   2413.   1918.   1675.
  1609.   1479.   1174.    925.    734.    555.    463.    455.    393.    403.
   323.    311.    331.    283.    300.    243.    274.    225.    234.    246.
   245.    224.    256.    271.    249.    231.    231.    231.    228.    263.
   265.    268.    275.    244.    273.    293.    310.    311.    308.    325.
   325.    391.    422.    467.    474.    538.    676.    703.    794.    830.
   865.   1007.   1111.   1402.   1765.   2150.   2655.   2776.   2689.   2505.
  2682.   2985.   3281.   3155.   2631.   2091.   1857.   1735.   1696.   1456.
  1288.   1045.    930.    882.    773.    739.    750.    772.    696.    816.
   805.   1017.   1183.   1302.   1273.    976.    860.    799.    745.    703.
   595.    463.    366.    334.    299.    287.    292.    248.    251.    270.
   284.    305.    308.    314.    368.    342.    348.    348.    382.    396.
   365.    412.    368.    400.    335.    319.    322.    294.    296.    299.
   328.    315.    397.    457.    591.    668.    833.    863.    831.    716.
   640.    561.    456.    524.    424.    363.    279.    254.    232.    225.
   244.    198.    232.    231.    238.    211.    243.    255.    256.    264.
   337.    317.    362.    389.    392.    486.    543.    538.    554.    550.
   629.    679.    825.    924.   1097.   1288.   1677.   2127.   2826.   3540.
  4174.   4439.   3830.   3036.   2523.   2369.   2311.   2005.   1597.   1137.
   799.    592.    515.    441.    455.    346.    358.    390.    398.    352.
   394.    433.    521.    574.    685.    650.    590.    505.    471.    410.
   438.    416.    360.    265.    230.    211.    194.    194.    216.    183.
   186.    164.    174.    154.    148.    148.    140.    154.    149.    173.
   168.    156.    161.    149.    157.    157.    151.    159.    123.    155.
   138.    145.    158.    122.    142.    120.    147.    135.    147.    132.
   129.    151.    142.    125.    126.    116.    150.    153.    172.    152.
   149.    161.    186.    197.    213.    207.    168.    162.    178.    166.
   146.    138.    130.    122.    122.    134.    114.    121.    118.    123.
   124.    140.     82.    139.    120.    135.    134.    118.    130.    114.
   117.    122.    128.    120.    122.    121.    124.    142.    120.    117.
   146.    143.    126.    137.    125.    141.    142.    128.    162.    127.
   153.    142.    136.    154.    163.    141.    142.    157.    171.    164.
   196.    168.    156.    183.    173.    197.    208.    208.    207.    226.
   261.    272.    238.    268.    284.    349.    327.    425.    483.    611.
   786.    846.   1036.   1077.   1033.    991.    974.   1012.    992.   1074.
  1052.   1012.    999.    967.   1009.    995.   1187.   1366.   1584.   1920.
  2304.   2686.   2530.   2289.   1930.   1505.   1530.   1467.   1449.   1227.
   884.    708.    544.    474.    434.    383.    383.    315.    372.    359.
   435.    441.    552.    635.    854.   1064.   1303.   1224.   1075.    870.
   739.    719.    702.    689.    604.    472.    341.    289.    275.    217.
   201.    191.    191.    178.    189.    161.    145.    151.    163.    138.
   144.    158.    158.    140.    133.    148.    135.    144.    115.    122.
   123.    113.    122.    138.    133.    112.    124.    138.    129.    138.
   116.    140.    121.    137.    109.    107.    116.    123.    124.    141.
   130.    135.    120.    121.     96.    122.    128.    119.    124.    109.
   125.    139.    111.    133.    136.    137.    125.    123.    133.    145.
   146.    137.    162.    131.    159.    162.    162.    175.    187.    225.
   181.    199.    198.    208.    203.    255.    261.    280.    311.    344.
   417.    529.    639.    762.    879.   1008.    925.    802.    654.    627.
   577.    591.    592.    446.    405.    360.    295.    260.    235.    260.
   275.    347.    360.    470.    592.    566.    482.    413.    385.    346.
   330.    352.    320.    270.    246.    232.    200.    168.    204.    180.
   149.    165.    194.    146.    132.    135.    132.    140.    156.    145.
   149.    143.    132.    150.    144.    134.    151.    137.    165.    173.
   186.    233.    229.    293.    286.    267.    245.    213.    210.    192.
   197.    199.    206.    167.    142.    139.    146.    126.    128.    118.
   104.     99.    116.    110.    104.     98.    106.    125.    115.    118.
   104.    111.    108.    115.    127.    129.    121.    113.    147.    130.
   121.    164.    138.    144.    151.    175.    179.    201.    234.    243.
   249.    283.    273.    235.    218.    240.    251.    238.    251.    225.
   268.    287.    274.    221.    314.    268.    258.    239.    249.    236.
   222.    246.    249.    226.    234.    295.    264.    295.    407.    470.
   520.    588.    567.    595.    657.    634.    633.    543.    471.    428.
   376.    397.    347.    332.    293.    225.    234.    203.    229.    182.
   181.    226.    195.    197.    195.    209.    239.    197.    224.    277.
   283.    318.    425.    492.    526.    616.    685.    699.    607.    547.
   455.    415.    379.    429.    412.    348.    287.    246.    230.    236.
   202.    182.    184.    162.    189.    170.    182.    167.    172.    197.
   209.    160.    147.    184.    175.    160.    167.    171.    161.    170.
   171.    144.    165.    147.    161.    192.    168.    214.    190.    181.
   248.    224.    241.    241.    259.    317.    296.    383.    458.    442.
   435.    414.    309.    330.    334.    414.    390.    377.    440.    464.
   559.    703.    888.    985.   1006.    869.    679.    532.    527.    536.
   579.    539.    496.    384.    331.    295.    266.    238.    269.    258.
   254.    261.    323.    341.    412.    549.    626.    709.    693.    640.
   629.    580.    552.    624.    605.    558.    566.    536.    494.    506.
   570.    551.    621.    612.    595.    517.    419.    409.    390.    403.
   378.    436.    371.    390.    382.    425.    476.    548.    647.    685.
   646.    510.    476.    411.    402.    385.    431.    432.    317.    292.
   251.    230.    200.    193.    220.    192.    188.    194.    200.    212.
   203.    227.    206.    184.    165.    185.    155.    162.    177.    139.
   155.    158.    141.    165.    139.    151.    152.    137.    128.    157.
   145.    133.    166.    130.    153.    143.    167.    161.    182.    164.
   209.    225.    230.    255.    342.    400.    439.    464.    529.    490.
   397.    390.    324.    359.    351.    386.    344.    315.    305.    280.
   281.    228.    230.    240.    232.    238.    220.    228.    234.    209.
   219.    242.    234.    239.    258.    243.    254.    314.    368.    432.
   507.    476.    485.    466.    417.    422.    430.    467.    561.    640.
   612.    617.    562.    492.    412.    428.    409.    368.    399.    388.
   343.    306.    267.    268.    216.    241.    197.    225.    204.    203.
   224.    239.    265.    268.    303.    307.    382.    370.    334.    339.
   327.    346.    379.    431.    473.    593.    722.    910.   1039.   1049.
   894.    721.    531.    481.    531.    576.    618.    573.    457.    357.
   311.    245.    283.    264.    280.    294.    294.    268.    262.    203.
   194.    171.    166.    170.    147.    151.    179.    140.    124.    141.
   120.    121.    115.    132.    140.    109.    109.    108.    101.    103.
   127.     97.     92.    107.    127.    106.    123.    118.    117.    116.
   117.    120.    121.    130.    143.    154.    144.    159.    185.    195.
   185.    192.    189.    205.    281.    268.    334.    377.    476.    599.
   788.    778.    842.    713.    587.    506.    468.    482.    518.    537.
   458.    421.    345.    329.    307.    246.    236.    275.    272.    269.
   276.    257.    239.    192.    177.    195.    163.    177.    155.    164.
   157.    160.    132.    162.    131.    106.    123.    121.    116.    121.
   137.    133.    140.    159.    158.    192.    196.    248.    207.    196.
   175.    172.    163.    154.    152.    146.    162.    144.    141.    128.
   110.    120.    104.    108.    103.     80.    103.    100.    104.     80.
    95.     83.     94.     94.     96.     77.    104.     81.     83.     84.
    87.     94.    104.    113.    103.     90.     90.    117.     93.    105.
   101.     98.    102.     98.    101.     89.    107.     86.     91.     88.
    87.     80.     88.     95.     94.    111.     95.     94.    110.    109.
   101.     92.     92.     91.    100.    116.    128.    128.    138.    119.
   128.    142.    158.    151.    169.    176.    192.    204.    252.    290.
   311.    448.    489.    623.    671.    597.    567.    427.    387.    386.
   365.    410.    396.    381.    339.    266.    262.    202.    178.    168.
   147.    156.    171.    144.    112.    137.    119.    105.    101.    111.
   129.    108.    111.     78.     94.    107.    110.    100.     90.     99.
    91.     93.     94.     98.     90.    114.     86.     99.    103.     96.
   110.     94.    103.    113.     97.    110.     99.    104.    126.     94.
   113.    128.    120.    128.    137.    140.    132.    172.    150.    185.
   182.    194.    258.    229.    280.    344.    382.    385.    424.    371.
   336.    325.    286.    289.    297.    290.    297.    274.    248.    229.
   226.    201.    182.    191.    154.    202.    176.    202.    211.    224.
   218.    223.    214.    207.    213.    210.    188.    222.    200.    212.
   206.    198.    225.    208.    179.    203.    214.    250.    236.    228.
   223.    191.    203.    178.    193.    204.    235.    262.    303.    304.
   345.    363.    384.    395.    361.    375.    381.    381.    405.    465.
   467.    579.    561.    664.    780.    918.   1092.   1127.   1081.    906.
   717.    621.    559.    603.    571.    613.    636.    564.    525.    422.
   352.    289.    232.    210.    229.    180.    220.    207.    180.    171.
   187.    166.    158.    165.    187.    148.    183.    167.    188.    189.
   226.    198.    203.    207.    229.    244.    281.    291.    375.    441.
   537.    711.    833.    891.    836.    585.    518.    387.    382.    350.
   439.    508.    515.    454.    359.    306.    221.    201.    154.    173.
   153.    154.    161.    116.    135.    125.    117.    137.     98.    136.
   129.    119.    129.    140.    127.    120.    127.    137.    122.    160.
   164.    160.    167.    183.    197.    206.    186.    226.    238.    274.
   352.    341.    417.    512.    518.    537.    544.    548.    471.    493.
   414.    397.    380.    391.    342.    310.    331.    319.    307.    225.
   222.    202.    184.    195.    153.    190.    149.    161.    144.    166.
   146.    149.    147.    155.    123.    137.    109.    112.    133.    123.
   109.    118.    121.    108.    115.    129.    118.    117.    120.    134.
   115.    115.    106.    124.    104.    108.    107.    133.    124.    118.
   120.    133.    130.    149.    135.    139.    117.    135.    141.    136.
   161.    138.    185.    175.    214.    226.    228.    206.    152.    149.
   133.    116.    144.    127.    140.    129.    140.    118.     89.     96.
    86.     91.    111.     99.     92.     99.    107.    120.     88.    106.
   106.    100.    123.    124.    121.    101.    121.    138.    140.    143.
   180.    213.    277.    267.    252.    225.    191.    155.    155.    167.
   171.    178.    191.    196.    158.    159.    164.    138.    112.    147.
   136.    142.    112.    107.    146.    120.    113.    105.     89.    111.
   111.    105.     95.     98.    102.    107.     99.     94.     92.    112.
    95.     93.     97.    110.     98.     85.    117.     63.     99.    102.
   113.    127.    132.    109.    134.    112.    111.    112.    100.    116.
   116.    110.    105.    104.    104.    103.     92.    104.     91.     97.
    98.     97.     85.     99.     90.     97.     91.     99.     77.     89.
    88.     96.    119.    113.    110.    146.    169.    152.    165.    146.
   159.    166.    169.    159.    159.    142.    129.    147.    145.    141.
   133.    145.    125.    135.    127.    118.     93.    128.    120.    120.
   122.    137.    113.    121.    137.    156.    196.    198.    209.    243.
   233.    175.    145.    171.    163.    168.    166.    157.    206.    186.
   200.    198.    171.    166.    169.    224.    229.    242.    254.    227.
   223.    214.    197.    227.    268.    270.    251.    218.    245.    203.
   206.    196.    148.    170.    202.    181.    186.    208.    188.    199.
   246.    257.    280.    304.    274.    274.    234.    211.    189.    199.
   184.    207.    188.    186.    209.    189.    195.    171.    139.    150.
   136.    138.    127.    134.    139.    130.    120.    136.    147.    163.
   154.    169.    164.    197.    247.    250.    236.    226.    251.    230.
   151.    188.    194.    175.    201.    200.    174.    225.    205.    183.
   193.    172.    169.    203.    240.    249.    264.    340.    306.    290.
   272.    251.    257.    256.    255.    252.    298.    312.    338.    341.
   330.    379.    420.    505.    527.    463.    449.    342.    295.    232.
   256.    261.    308.    289.    308.    322.    337.    292.    236.    211.
   202.    166.    164.    127.    156.    148.    144.    146.    147.    119.
   131.    130.    103.    120.     91.    111.     90.     95.    107.    104.
    89.     90.     96.     85.     86.    101.    112.     99.     87.    123.
    99.     94.     82.     78.    107.    115.    120.    109.    108.    102.
   128.    128.    135.    135.    186.    193.    224.    271.    271.    318.
   315.    204.    193.    175.    149.    172.    157.    177.    194.    194.
   201.    162.    140.    143.    121.    123.    105.    100.    102.    107.
    89.    115.     94.    102.     87.    107.    100.     94.    118.    115.
    93.     87.    111.     86.    106.     89.    103.     94.    112.    103.
   116.    121.    131.    145.    158.    146.    188.    179.    210.    232.
   230.    239.    220.    214.    243.    273.    261.    240.    259.    210.
   201.    182.    211.    196.    188.    209.    193.    176.    204.    172.
   169.    165.    172.    148.    170.    199.    242.    184.    179.    150.
   165.    170.    187.    177.    180.    181.    160.    184.    184.    167.
   151.    166.    146.    150.    136.    143.    120.    119.    117.    119.
   114.    108.    119.    103.    133.    126.    100.     97.    108.    110.
   121.    164.    138.    148.    170.    175.    218.    286.    274.    315.
   380.    392.    359.    390.    362.    322.    259.    230.    233.    251.
   211.    243.    262.    240.    210.    222.    199.    170.    133.    134.
   132.    143.    110.    117.    123.    120.    116.    143.    105.    150.
   103.    116.    109.    113.    123.    101.    109.    124.    135.    136.
   139.    121.    123.    119.     89.    106.    107.    103.    106.     86.
    94.     90.     84.    102.     92.     99.    105.     90.     91.    113.
    85.     90.    105.    101.    102.    156.    109.    123.    138.    168.
   157.    171.    128.    140.    127.    105.    116.    133.    124.    153.
   142.    169.    162.    179.    168.    145.    150.    112.    137.    107.
   108.    139.    109.    113.    123.    104.    118.    117.    117.    121.
   119.    143.    163.    127.    129.    173.    154.    190.    213.    268.
   293.    310.    323.    299.    339.    240.    227.    234.    197.    222.
   210.    202.    204.    194.    213.    211.    171.    157.    138.    148.
   153.    132.    134.    104.    129.    116.    139.    107.    105.    104.
   104.    115.    103.    104.    113.    111.    134.    122.    120.    154.
   139.    187.    178.    205.    245.    273.    254.    225.    199.    209.
   195.    168.    160.    156.    146.    161.    145.    165.    207.    167.
   163.    153.    119.    110.    106.     90.    103.     97.     99.    108.
    81.     83.     84.     97.     98.     85.     97.     93.    110.     98.
   104.    124.    126.    101.    140.    143.    162.    169.    154.    125.
   108.    122.    111.    106.    112.    108.    123.     91.    125.    130.
   125.     89.    113.     94.     90.    105.    111.     85.     94.     97.
   114.     88.     78.     91.    102.     87.     79.     80.     66.     80.
    94.     79.     91.    100.     87.     84.     91.    101.     84.     88.
    99.    100.    101.    113.    120.    113.    115.    119.    125.    118.
   115.    110.    105.     78.     99.     93.    104.    113.    108.     88.
   101.     98.     89.     78.     82.     81.     86.     87.     73.     92.
    82.     72.     78.     78.     67.     69.     66.     61.     68.     93.
    69.     75.     71.     71.     78.     75.     74.     80.     82.     78.
    59.     79.     78.     73.     92.     93.     86.     80.     90.     90.
    91.     83.     82.    102.     98.     94.     79.     87.    101.     92.
    78.    101.     90.     92.     96.     96.     92.    114.    109.    100.
   110.    114.    104.    124.     93.    128.    109.    121.    131.    135.
   151.    149.    178.    173.    190.    183.    218.    259.    252.    326.
   358.    423.    470.    507.    536.    465.    427.    366.    342.    331.
   356.    336.    353.    372.    315.    353.    375.    306.    279.    296.
   247.    196.    189.    208.    203.    191.    217.    167.    204.    157.
   182.    186.    169.    208.    225.    246.    273.    310.    248.    180.
   237.    178.    163.    184.    144.    159.    187.    217.    223.    201.
   207.    249.    250.    298.    306.    291.    295.    288.    287.    284.
   233.    199.    184.    158.    165.    173.    180.    205.    215.    210.
   234.    228.    173.    192.    192.    165.    149.    155.    137.    126.
   134.    124.    126.    122.    131.    169.    150.    147.    171.    195.
   169.    165.    180.    129.    129.    136.    132.    143.    136.    136.
   104.    126.    116.    132.    135.    110.    118.    112.    110.    109.
   123.    121.    108.    106.    117.    122.    104.    108.    106.     85.
    90.     94.     80.    103.     78.     97.    100.     90.     82.     99.
    88.     79.     81.     93.     75.     82.     79.    107.     84.    101.
    93.     95.     95.     87.    111.     95.     93.    102.    115.    139.
   135.    139.    146.    138.    133.    137.    111.    149.    138.    154.
   153.    164.    174.    201.    202.    188.    183.    195.    172.    153.
   150.    142.    150.    135.    132.    136.    134.    144.    112.    133.
   115.    126.    132.    122.    114.    106.    104.     92.     97.    106.
    88.     94.     98.     81.     82.     75.     73.     83.     81.     83.
    92.     93.     86.     78.     99.     87.     78.     95.     78.     89.
   102.    111.    108.     92.    122.    124.    142.    107.    122.    112.
    84.     99.     93.     88.     93.     99.     87.     99.     91.    107.
   108.     95.    102.     88.     96.     91.     79.     93.     92.     89.
    87.     86.     86.     83.     98.     97.     94.     74.    102.    117.
   102.    117.     97.    104.    122.     97.    109.    115.    124.    136.
   142.    158.    140.    147.    143.    119.    117.    115.    117.     94.
   116.    122.    116.    126.    122.    134.    132.    146.    122.    140.
   134.    134.    129.    160.    132.    167.    165.    166.    176.    183.
   165.    187.    197.    232.    219.    233.    245.    268.    229.    232.
   215.    171.    169.    150.    152.    150.    160.    161.    155.    159.
   144.    162.    161.    164.    137.    176.    161.    185.    150.    152.
   111.    112.    116.    110.    102.    108.    121.    105.    104.     93.
   119.    148.    127.    140.    150.    121.    147.    142.    154.    163.
   207.    190.    243.    240.    188.    155.    182.    158.    135.    131.
   135.    120.    123.    127.    143.    155.    149.    139.    137.    141.
   115.     97.    113.    100.     94.     88.     75.     94.     90.     76.
    66.     78.     66.     72.     71.     56.     69.     67.     71.     72.
    75.     71.     61.     78.     73.     62.     55.     58.     68.     68.
    69.     88.     56.     56.     67.     75.     56.     64.     76.     91.
    80.     70.     78.     75.     95.     83.     86.     96.     79.     90.
    99.    103.     97.    106.    126.     93.    124.    105.    113.    120.
   118.    115.    115.    105.    102.    106.    104.     96.    111.     93.
   126.    123.    116.    110.     95.     96.     98.     78.     90.     91.
    77.     95.    112.    128.     98.    119.    117.    130.    118.     89.
    89.     97.     75.     90.     75.     82.     78.     76.     82.     95.
    95.     83.     81.     96.     87.     87.     85.     90.     89.     95.
    92.     77.    100.     78.    116.    102.    117.    145.    145.    149.
   134.    116.    114.    116.    102.    103.    108.    105.     90.    108.
   114.    113.    135.    159.    128.    126.    126.    116.     86.    101.
    97.    114.    123.    104.    108.    128.    112.    103.    114.    117.
   114.    133.    123.     87.    104.     90.    107.    113.    106.    102.
   123.    137.    131.    133.    112.     99.    126.    108.     96.     89.
    95.     92.     93.     85.     81.     85.     91.     97.     87.     84.
    70.     64.     80.     77.     69.     69.     74.     72.     66.     75.
    77.     76.     66.     63.     75.     63.     62.     66.     67.     58.
    84.     85.     68.     65.     80.     69.     56.     80.     57.     88.
    80.     88.     72.    100.     98.     84.     96.    105.    108.    115.
   129.    118.    126.    124.    121.    125.    121.    118.    122.    120.
   125.    104.    112.    111.     90.     92.     94.    106.     93.     94.
    83.    109.     96.    100.     83.     98.     89.    101.     58.     69.
    86.     74.     64.     82.    100.     85.     94.     88.     76.    113.
   111.    100.     95.     72.    104.    121.    109.    113.     94.     78.
    76.     80.     73.     89.     80.     72.     74.     86.     84.     71.
    84.     96.     75.    112.     80.     67.     75.     79.     80.     78.
    91.     88.     80.     81.     90.    100.     95.     86.     99.    100.
    99.     95.     87.     77.     79.     62.     84.     98.     96.     89.
    81.     82.     77.     97.     95.     78.     78.     87.     79.     89.
    70.     75.     86.     87.     81.     76.     76.     92.     77.     85.
    91.     92.     94.     96.    104.     87.     78.     73.     79.     80.
    84.     94.     75.     82.     80.     91.     78.     96.     71.     88.
    65.     86.     98.     67.     68.     68.     67.     86.     68.     82.
    73.     79.     82.     86.     79.     80.     63.     77.     73.     74.
    72.     87.     72.     76.     62.     72.     87.     64.     69.     70.
    78.     77.     79.     71.     86.     67.     76.     98.    103.    124.
   104.    109.    110.    136.    131.    111.    110.     93.     73.     88.
    75.     94.     97.     87.    107.    109.    108.    126.    114.    144.
   107.     94.     89.     91.     88.     81.     80.     87.     74.     71.
    65.     69.     65.     79.     78.     88.     79.     68.     69.     61.
    50.     69.     54.     75.     51.     65.     70.     78.     64.     54.
    62.     63.     58.     65.     70.     62.     66.     72.     80.     82.
    88.     67.     77.     56.     81.     86.     53.     76.     84.     72.
    77.     60.     70.     72.     62.     70.     62.     65.     70.     68.
    69.     79.     67.     87.     74.     93.     92.     86.     92.     91.
    83.     87.     97.    132.    139.    156.    151.    183.    173.    202.
   184.    207.    232.    192.    168.    140.    145.    139.    104.    109.
   103.    119.    116.    132.    111.    124.    153.    129.    125.    130.
   128.    117.    126.    124.    101.    100.     94.     80.     83.     84.
    88.     81.     85.     80.     82.     87.     71.     74.     69.     71.
    98.     73.     82.     87.     66.     84.     86.     80.     67.     69.
    57.     70.     67.     58.     80.     76.     70.     67.     85.     89.
    63.     66.     71.     85.     86.     83.     95.     81.     79.     93.
    73.     80.     90.     80.     66.     72.     71.     71.     71.     63.
    60.     88.     63.     72.     63.     66.     62.     78.     70.     73.
    75.     70.     56.     85.     69.     74.     64.     83.     66.     80.
    87.     79.     74.     61.     81.     84.     77.     94.    101.    105.
   128.     95.     84.     93.     89.     84.     88.     79.     78.     66.
    99.     70.     75.     74.     81.     81.     76.     90.     86.     79.
    96.     70.     85.     85.     80.     76.     81.     83.     73.     91.
    77.     90.     95.    104.     86.     86.     96.    118.    102.    125.
   129.    123.    126.    145.    148.    190.    164.    184.    176.    214.
   173.    201.    183.    194.    219.    217.    196.    194.    192.    163.
   172.    158.    135.    131.    154.    150.    155.    132.    155.    141.
   129.    134.    133.    143.    119.    123.    140.    120.    114.    115.
   126.    110.    104.    123.    104.    114.    121.    127.    121.     96.
    92.    110.     96.     97.     83.     76.     85.    111.     89.     88.
    94.     81.     99.     74.     85.     87.     96.     96.     93.    109.
   124.     83.    111.     98.    113.     94.     79.     92.     83.     99.
    74.     95.    102.     92.    107.    114.    107.    110.    135.    114.
   124.    138.    133.    131.    120.    115.    122.    102.    123.    125.
   111.    111.     93.     96.     83.     95.     81.    107.    101.     79.
    84.     71.     93.     97.    104.     78.     95.     85.     81.     88.
    84.     94.     79.     69.     79.     73.     92.     74.     72.     73.
    77.     55.     69.     72.     66.     77.     74.     78.     65.     55.
    71.     59.     61.     75.     83.     67.     61.     72.     82.     50.
    59.     59.     75.     73.     66.     61.     70.     79.     71.     59.
    70.     65.     69.     76.     80.     81.     68.     81.     98.     79.
    87.     81.     89.     88.     79.     91.     84.     86.    102.     89.
    99.    100.     89.     84.     87.     94.     90.     79.     88.    110.
    79.     80.     90.     77.     85.     74.     95.     94.     97.     82.
    94.     92.     90.     90.     96.     92.     89.     89.     76.     79.
    85.     99.     63.     65.     61.     75.     90.     78.     69.     80.
    88.     68.     88.     73.     72.     84.     65.     71.     56.     86.
    86.     83.     66.     57.     77.     81.     69.     71.     77.     84.
    90.     98.    105.     95.     99.    100.    123.    101.    104.     94.
   104.    114.    117.     99.    105.     93.    100.     91.     85.     69.
    82.     90.     90.     76.     91.     83.     98.     99.     96.     98.
    95.    105.     86.     95.    100.     95.     86.     73.    107.     75.
    86.     69.     69.     76.     82.     72.     81.     83.     74.     68.
    87.     65.     77.     82.     80.     70.     80.     91.     82.     68.
    81.     82.     73.     63.     76.     70.     66.     67.     77.     68.
    84.     60.     74.     92.     75.     77.     92.     89.     75.     89.
    70.     87.     85.     76.     85.     97.     75.    109.     96.    111.
   104.    119.    107.    116.     99.    111.    103.     94.    117.    100.
    83.    101.     96.    120.     83.    101.     93.     76.     70.     70.
    92.     86.     92.     99.     79.     88.     85.     90.    102.     89.
    83.     77.     82.     89.     78.     92.     96.     72.     71.     91.
    90.     91.    102.    111.    108.    119.    110.    123.    130.    147.
   151.    162.    184.    154.    169.    161.    135.    109.    128.    117.
   111.    111.    107.    121.     98.    123.     93.    102.    114.    105.
   103.    122.    110.    115.    130.    108.    109.    116.    124.     84.
    95.    112.     85.     83.     75.     88.     89.     82.     84.     85.
    82.     86.     85.     89.     77.     90.     86.     76.     98.     96.
    69.     78.     78.     81.     78.     87.     77.     70.     73.     74.
    95.     98.     73.     88.     75.     76.     74.     68.     92.     76.
    84.     77.     92.     83.     76.     84.     70.     78.    102.     95.
    88.     92.     96.     99.    108.    130.    129.    124.    120.    112.
   116.     94.     97.    109.     79.    102.    102.     92.    106.     92.
   100.     92.     91.     98.    105.    106.     94.     98.    121.     83.
    99.    122.    111.    122.    120.     93.    118.    106.    114.    110.
    91.    104.     97.    114.     95.     95.     90.     93.     88.    115.
    86.     64.     86.     92.     99.     95.    100.     92.    103.     94.
   101.     89.     93.     92.     96.    107.     94.     93.    105.     96.
    99.    113.    113.    133.    111.    106.    113.     96.    103.    114.
   114.    139.    138.    119.    117.    124.    143.    131.    149.    127.
   145.    175.    138.    129.    158.    126.    116.    139.    134.    125.
   119.    138.    132.    131.    142.    125.    115.    120.    140.    139.
   159.    158.    118.    139.    109.    140.    138.    148.    130.    141.
   124.    128.    130.    122.    145.    111.    137.    134.    152.    143.
   156.    132.    138.    131.    130.    127.    112.    113.    105.    106.
   115.    102.    105.    125.    110.    108.    102.    116.    117.    125.
   132.    114.    126.    147.    122.    129.    109.    123.    120.    124.
   138.    126.    148.    145.    157.    151.    167.    155.    175.    143.
   145.    158.    132.    136.    165.    119.    140.    152.    150.    138.
   120.    138.    145.    119.    123.    122.    127.    145.    101.    127.
   119.    149.    130.    111.    141.    114.    101.    129.    121.    111.
   122.    146.    138.    135.    141.    115.    159.    136.    147.    152.
   131.    131.    105.    124.    140.    107.    117.     98.    100.    108.
   102.    104.     95.    115.    127.    112.    130.    116.    132.    126.
   126.    126.    146.    135.    138.    137.    140.    131.    135.    146.
   114.    114.    124.    107.    115.    103.    102.    105.    100.    118.
   111.    109.    107.    113.    122.    115.    117.    119.     96.     92.
   112.    103.     88.    131.     98.    107.    105.    110.     91.     90.
   105.     86.    102.     88.     89.     90.     87.     94.     97.     92.
    87.     95.    102.     98.     99.     93.     88.     87.    102.     99.
   105.     87.    113.    126.    117.    106.    125.    129.    140.    135.
   153.    126.    148.    156.    161.    174.    183.    144.    179.    172.
   182.    177.    166.    167.    142.    145.    157.    147.    166.    155.
   148.    149.    145.    160.    154.    145.    190.    170.    169.    179.
   191.    193.    160.    170.    176.    187.    158.    165.    176.    143.
   157.    158.    137.    146.    151.    184.    173.    216.    200.    211.
   202.    243.    262.    286.    259.    286.    271.    267.    198.    198.
   202.    204.    194.    185.    177.    186.    182.    176.    164.    166.
   178.    195.    205.    185.    204.    194.    228.    242.    258.    243.
   259.    272.    256.    288.    237.    238.    226.    221.    210.    190.
   179.    179.    193.    164.    176.    155.    145.    160.    156.    143.
   149.    147.    166.    159.    152.    171.    168.    137.    146.    147.
   144.    152.    109.    137.    137.    120.    131.    111.    152.    133.
   141.    126.    104.    121.    126.    136.    129.    121.    127.    123.
   121.    125.    132.    130.    133.    165.    157.    174.    161.    146.
   143.    136.    149.    129.    118.    133.    137.    134.    148.    138.
   119.    125.    111.    112.    117.    127.    133.    126.    127.    134.
   149.    166.    138.    160.    170.    169.    151.    167.    144.    142.
   144.    118.    136.    130.    146.    134.    104.    105.    136.    125.
   158.    108.    145.    137.    131.    113.    124.    145.    122.    123.
   117.    117.    136.    112.    102.    110.    126.    116.    109.     97.
    97.     98.     97.     99.     88.    113.     79.     90.     96.    102.
    80.     89.    113.     95.    116.     84.    100.     97.     99.     81.
    95.     97.     72.     98.     85.     92.     96.    103.     66.     92.
    82.     86.     80.     87.     83.     86.     81.     91.     82.     97.
    93.     87.     80.     87.    100.    100.     70.     86.    125.     83.
    90.     98.    106.     89.     99.    101.    101.     92.     98.    123.
   106.    111.    118.    115.    121.    150.    123.    141.    138.    140.
   129.    113.    145.    136.    157.    132.    138.    171.    146.    127.
   132.    144.    126.    112.    119.    139.    114.    108.    143.    131.
   134.    133.    105.    146.    151.    122.    129.    148.    152.    142.
   138.    143.    140.    125.    126.    140.    130.    126.    149.    126.
   130.    120.    103.    118.    109.    104.     95.    111.    128.    107.
   121.    109.    112.    116.    102.    114.    117.    110.    120.    107.
    89.    115.    111.    101.    116.    117.    131.    117.    129.    113.
   113.    112.    111.    131.    104.    109.     91.    104.     99.     97.
    91.     89.     92.    105.    102.    109.    104.    102.    100.    114.
   101.     97.    101.    104.    108.    117.     92.    125.    119.    103.
    89.    118.    104.     95.    106.     99.    111.    102.    119.     98.
    96.    103.    105.     94.     94.    105.     85.    103.     98.    100.
   101.     88.    100.    103.    103.     93.     92.    123.     94.    106.
    97.     99.    108.    103.    110.     90.     99.    115.    100.     86.
    98.    128.     93.     93.    102.    137.    109.    107.    120.     98.
   110.     99.    102.    111.    112.     96.    107.     99.    103.    103.
   130.     99.     95.    103.    122.    105.     99.     95.     87.    100.
   103.    105.    103.    109.    111.    114.    103.    115.     93.    127.
    99.     84.    100.    119.    107.     91.    108.     98.     95.     98.
    94.     96.    107.     94.    106.     78.    115.    107.    103.     88.
   105.    101.     97.    104.     81.     95.     88.    107.     91.    104.
    96.     93.     90.    109.    115.    105.     89.     91.    110.     86.
   111.    108.     92.     88.    110.    110.    100.    115.     79.    100.
   111.    117.    113.    102.    110.    125.    137.    132.    102.    113.
   121.     96.    120.    110.    120.    105.     97.    105.    115.    106.
   106.    100.     98.    110.    104.    128.    122.    120.    121.    100.
   134.   

;
_cod_data_source_file            K2FeF5-form-III.cif
_cod_data_source_block           K2FeF5-form-III
_cod_database_code               1513881
#BEGIN Tags that were not found in dictionaries:
_pd_proc_ls_prof_cr_factor       13.2279
_pd_proc_ls_prof_cwr_factor      15.3081
_pd_proc_ls_prof_cwr_expected    8.7246
_pd_proc_ls_prof_chi2            3.0786
_pd_proc_ls_prof_echi2           3.0948
#END Tags that were not found in dictionaries
loop_
_symmetry_equiv_pos_as_xyz
x,y,z
x+1/2,-y+1/2,-z+1/2
-x,y+1/2,-z
-x+1/2,-y,z+1/2
-x,-y,-z
-x+1/2,y+1/2,z+1/2
x,-y+1/2,z
x+1/2,y,-z+1/2
loop_
_atom_site_label
_atom_site_type_symbol
_atom_site_thermal_displace_type
_atom_site_fract_x
_atom_site_fract_y
_atom_site_fract_z
_atom_site_occupancy
_atom_site_U_iso_or_equiv
Fe Fe Uiso 0.6693(3) 0.25000 0.4368(2) 1.000 0.0147(6)
F1 F Uiso 0.50000 0.00000 0.50000 1.000 0.0113(15)
F2 F Uiso 0.5236(8) 0.25000 0.3050(6) 1.000 0.041(2)
F3 F Uiso 0.7823(8) 0.25000 0.5903(6) 1.000 0.036(2)
F4 F Uiso 0.8257(7) 0.0119(6) 0.3869(3) 1.000 0.0274(13)
K1 K Uiso 0.1578(4) 0.25000 0.4142(2) 1.000 0.0251(10)
K2 K Uiso 0.4873(3) 0.25000 0.7283(3) 1.000 0.0172(9)
loop_
_atom_type_symbol
_atom_type_scat_Cromer_Mann_a1
_atom_type_scat_Cromer_Mann_b1
_atom_type_scat_Cromer_Mann_a2
_atom_type_scat_Cromer_Mann_b2
_atom_type_scat_Cromer_Mann_a3
_atom_type_scat_Cromer_Mann_b3
_atom_type_scat_Cromer_Mann_a4
_atom_type_scat_Cromer_Mann_b4
_atom_type_scat_Cromer_Mann_c
_atom_type_scat_dispersion_real
_atom_type_scat_dispersion_imag
_atom_type_scat_source
K+1 7.95780 12.63310 7.49170 0.76740 6.35900 -0.00200 1.19150 31.91280 -4.99780
0.36500 1.06600
International_Tables_for_Crystallography_Vol.C(1991)_Tables_6.1.1.4_and_6.1.1.5
Fe+3 11.17640 4.61470 7.38630 0.30050 3.39480 11.67290 0.07240 38.55660 0.97070
-1.17900 3.20400
International_Tables_for_Crystallography_Vol.C(1991)_Tables_6.1.1.4_and_6.1.1.5
F-1 3.63220 5.27756 3.51057 14.73530 1.26064 0.44226 0.94071 47.34370 0.65340
0.06900 0.05300
International_Tables_for_Crystallography_Vol.C(1991)_Tables_6.1.1.4_and_6.1.1.5
loop_
_geom_angle_atom_site_label_1
_geom_angle_atom_site_label_2
_geom_angle_atom_site_label_3
_geom_angle
_geom_angle_publ_flag
F1 Fe F2 86.37(16) yes
F1 Fe F3 86.45(15) yes
F1 Fe F4 89.24(13) yes
F2 Fe F3 169.9(3) yes
F2 Fe F4 96.1(2) yes
loop_
_geom_bond_atom_site_label_1
_geom_bond_atom_site_label_2
_geom_bond_distance
_geom_bond_publ_flag
Fe F1 2.0286(16) yes
Fe F2 1.865(7) yes
Fe F3 1.959(7) yes
Fe F4 1.870(4) yes
