#------------------------------------------------------------------------------
#$Date: 2016-02-13 21:28:24 +0200 (Sat, 13 Feb 2016) $
#$Revision: 176429 $
#$URL: svn://www.crystallography.net/cod/cif/1/52/08/1520825.cif $
#------------------------------------------------------------------------------
#
# This file is available in the Crystallography Open Database (COD),
# http://www.crystallography.net/
#
# All data on this site have been placed in the public domain by the
# contributors.
#
data_1520825
loop_
_publ_author_name
'Berastegui, P.'
'Hull, S.'
_publ_section_title
;
 The crystal structures of thallium(I) fluoride
;
_journal_name_full               'Journal of Solid State Chemistry'
_journal_page_first              266
_journal_page_last               275
_journal_volume                  150
_journal_year                    2000
_chemical_formula_sum            'F Tl'
_chemical_name_systematic        'Tl F'
_space_group_IT_number           129
_symmetry_space_group_name_Hall  '-P 4a 2a'
_symmetry_space_group_name_H-M   'P 4/n m m :2'
_cell_angle_alpha                90
_cell_angle_beta                 90
_cell_angle_gamma                90
_cell_formula_units_Z            2
_cell_length_a                   3.78283
_cell_length_b                   3.78283
_cell_length_c                   6.12312
_cell_volume                     87.621
_citation_journal_id_ASTM        JSSCBI
_cod_data_source_file            Berastegui_JSSCBI_2000_1794.cif
_cod_data_source_block           F1Tl1
_cod_original_cell_volume        87.62064
_cod_original_formula_sum        'F1 Tl1'
_cod_database_code               1520825
loop_
_symmetry_equiv_pos_as_xyz
x,y,z
-y+1/2,x,z
-x+1/2,-y+1/2,z
y,-x+1/2,z
x+1/2,-y,-z
y+1/2,x+1/2,-z
-x,y+1/2,-z
-y,-x,-z
-x,-y,-z
y-1/2,-x,-z
x-1/2,y-1/2,-z
-y,x-1/2,-z
-x-1/2,y,z
-y-1/2,-x-1/2,z
x,-y-1/2,z
y,x,z
loop_
_atom_site_label
_atom_site_type_symbol
_atom_site_fract_x
_atom_site_fract_y
_atom_site_fract_z
_atom_site_occupancy
_atom_site_U_iso_or_equiv
F1 F-1 0.25 0.25 0.8574 1 0.0
Tl1 Tl+1 0.25 0.25 0.2539 1 0.0
