#------------------------------------------------------------------------------
#$Date: 2016-02-13 21:28:24 +0200 (Sat, 13 Feb 2016) $
#$Revision: 176429 $
#$URL: svn://www.crystallography.net/cod/cif/1/52/67/1526758.cif $
#------------------------------------------------------------------------------
#
# This file is available in the Crystallography Open Database (COD),
# http://www.crystallography.net/
#
# All data on this site have been placed in the public domain by the
# contributors.
#
data_1526758
loop_
_publ_author_name
'Kraus, M.'
'Mueller, B.G.'
_publ_section_title
;
 K Cu M(IV) F7 (M(IV) = Zr(4+), Hf(4+)), ein neuer Strukturtyp
;
_journal_name_full
'Zeitschrift fuer Anorganische und Allgemeine Chemie'
_journal_page_first              1929
_journal_page_last               1933
_journal_volume                  626
_journal_year                    2000
_chemical_formula_sum            'Cu F7 K Zr'
_chemical_name_systematic        'K Cu Zr F7'
_space_group_IT_number           63
_symmetry_space_group_name_Hall  '-C 2c 2'
_symmetry_space_group_name_H-M   'C m c m'
_cell_angle_alpha                90
_cell_angle_beta                 90
_cell_angle_gamma                90
_cell_formula_units_Z            8
_cell_length_a                   8.2963
_cell_length_b                   12.7646
_cell_length_c                   10.1156
_cell_volume                     1071.231
_citation_journal_id_ASTM        ZAACAB
_cod_data_source_file            Kraus_ZAACAB_2000_760.cif
_cod_data_source_block           Cu1F7K1Zr1
_cod_original_formula_sum        'Cu1 F7 K1 Zr1'
_cod_database_code               1526758
loop_
_symmetry_equiv_pos_as_xyz
x,y,z
-x,-y,z+1/2
x,-y,-z
-x,y,-z+1/2
-x,-y,-z
x,y,-z-1/2
-x,y,z
x,-y,z-1/2
x+1/2,y+1/2,z
-x+1/2,-y+1/2,z+1/2
x+1/2,-y+1/2,-z
-x+1/2,y+1/2,-z+1/2
-x+1/2,-y+1/2,-z
x+1/2,y+1/2,-z-1/2
-x+1/2,y+1/2,z
x+1/2,-y+1/2,z-1/2
loop_
_atom_site_label
_atom_site_type_symbol
_atom_site_fract_x
_atom_site_fract_y
_atom_site_fract_z
_atom_site_occupancy
_atom_site_U_iso_or_equiv
F7 F-1 0.26745 0.62787 0.51489 1 0.0
Zr1 Zr+4 0.5 0.63403 0.56957 1 0.0
F3 F-1 0.5 0.47448 0.61243 1 0.0
Cu1 Cu+2 0.5 0.86618 0.07078 1 0.0
F1 F-1 0.5 0 0 1 0.0
F2 F-1 0.5 0.91924 0.25 1 0.0
F6 F-1 0.3597 0.63546 0.75 1 0.0
K1 K+1 0.75951 0.60377 0.25 1 0.0
F4 F-1 0.5 0.72236 0.11267 1 0.0
F5 F-1 0.5 0.79291 0.61111 1 0.0
