#------------------------------------------------------------------------------
#$Date: 2016-02-13 21:28:24 +0200 (Sat, 13 Feb 2016) $
#$Revision: 176429 $
#$URL: svn://www.crystallography.net/cod/cif/1/52/67/1526766.cif $
#------------------------------------------------------------------------------
#
# This file is available in the Crystallography Open Database (COD),
# http://www.crystallography.net/
#
# All data on this site have been placed in the public domain by the
# contributors.
#
data_1526766
loop_
_publ_author_name
'Krezhov, K.'
'Konstantinov, P.'
_publ_section_title
;
 Neutron diffraction investigation of Rb Ni F3
;
_journal_name_full               'Materials Science Forum'
_journal_page_first              938
_journal_page_last               941
_journal_volume                  321
_journal_year                    2000
_chemical_formula_sum            'F3 Ni Rb'
_chemical_name_systematic        'Rb Ni F3'
_space_group_IT_number           194
_symmetry_space_group_name_Hall  '-P 6c 2c'
_symmetry_space_group_name_H-M   'P 63/m m c'
_cell_angle_alpha                90
_cell_angle_beta                 90
_cell_angle_gamma                120
_cell_formula_units_Z            6
_cell_length_a                   5.84
_cell_length_b                   5.84
_cell_length_c                   14.308
_cell_volume                     422.606
_citation_journal_id_ASTM        MSFOEP
_cod_data_source_file            Krezhov_MSFOEP_2000_349.cif
_cod_data_source_block           F3Ni1Rb1
_cod_original_cell_volume        422.6056
_cod_original_formula_sum        'F3 Ni1 Rb1'
_cod_database_code               1526766
loop_
_symmetry_equiv_pos_as_xyz
x,y,z
x-y,x,z+1/2
-y,x-y,z
-x,-y,z+1/2
-x+y,-x,z
y,-x+y,z+1/2
-y,-x,-z+1/2
x-y,-y,-z
x,x-y,-z+1/2
y,x,-z
-x+y,y,-z+1/2
-x,-x+y,-z
-x,-y,-z
-x+y,-x,-z-1/2
y,-x+y,-z
x,y,-z-1/2
x-y,x,-z
-y,x-y,-z-1/2
y,x,z-1/2
-x+y,y,z
-x,-x+y,z-1/2
-y,-x,z
x-y,-y,z-1/2
x,x-y,z
loop_
_atom_site_label
_atom_site_type_symbol
_atom_site_fract_x
_atom_site_fract_y
_atom_site_fract_z
_atom_site_occupancy
_atom_site_U_iso_or_equiv
Ni1 Ni+2 0 0 0 1 0.0
F2 F-1 0.833 0.167 0.0789 1 0.0
Ni2 Ni+2 0.3333 0.6667 0.8453 1 0.0
Rb2 Rb+1 0.3333 0.6667 0.0951 1 0.0
Rb1 Rb+1 0 0 0.25 1 0.0
F1 F-1 0.519 0.481 0.25 1 0.0
