#------------------------------------------------------------------------------
#$Date: 2016-02-13 21:28:24 +0200 (Sat, 13 Feb 2016) $
#$Revision: 176429 $
#$URL: svn://www.crystallography.net/cod/cif/1/52/70/1527099.cif $
#------------------------------------------------------------------------------
#
# This file is available in the Crystallography Open Database (COD),
# http://www.crystallography.net/
#
# All data on this site have been placed in the public domain by the
# contributors.
#
data_1527099
loop_
_publ_author_name
'Babel, D.'
_publ_section_title
;
 Untersuchungen an ternaeren Fluoriden. VI. Die Kristallstrukturen der
 hexagonalen Fluoroperowskite
;
_journal_name_full
'Zeitschrift fuer Anorganische und Allgemeine Chemie'
_journal_page_first              117
_journal_page_last               129
_journal_volume                  369
_journal_year                    1969
_chemical_formula_sum            'Cs F3 Ni'
_chemical_name_systematic        'Cs (Ni F3)'
_space_group_IT_number           194
_symmetry_space_group_name_Hall  '-P 6c 2c'
_symmetry_space_group_name_H-M   'P 63/m m c'
_cell_angle_alpha                90
_cell_angle_beta                 90
_cell_angle_gamma                120
_cell_formula_units_Z            2
_cell_length_a                   6.236
_cell_length_b                   6.236
_cell_length_c                   5.225
_cell_volume                     175.966
_citation_journal_id_ASTM        ZAACAB
_cod_data_source_file            Babel_ZAACAB_1969_1236.cif
_cod_data_source_block           Cs1F3Ni1
_cod_original_cell_volume        175.9662
_cod_original_formula_sum        'Cs1 F3 Ni1'
_cod_database_code               1527099
loop_
_symmetry_equiv_pos_as_xyz
x,y,z
x-y,x,z+1/2
-y,x-y,z
-x,-y,z+1/2
-x+y,-x,z
y,-x+y,z+1/2
-y,-x,-z+1/2
x-y,-y,-z
x,x-y,-z+1/2
y,x,-z
-x+y,y,-z+1/2
-x,-x+y,-z
-x,-y,-z
-x+y,-x,-z-1/2
y,-x+y,-z
x,y,-z-1/2
x-y,x,-z
-y,x-y,-z-1/2
y,x,z-1/2
-x+y,y,z
-x,-x+y,z-1/2
-y,-x,z
x-y,-y,z-1/2
x,x-y,z
loop_
_atom_site_label
_atom_site_type_symbol
_atom_site_fract_x
_atom_site_fract_y
_atom_site_fract_z
_atom_site_occupancy
_atom_site_U_iso_or_equiv
Ni1 Ni+2 0 0 0 1 0.0
Cs1 Cs+1 0.3333 0.6667 0.75 1 0.0
F1 F-1 -0.1431 -0.2862 0.25 1 0.0
