#------------------------------------------------------------------------------
#$Date: 2015-08-04 18:04:47 +0300 (Tue, 04 Aug 2015) $
#$Revision: 152729 $
#$URL: svn://www.crystallography.net/cod/cif/1/52/93/1529333.cif $
#------------------------------------------------------------------------------
#
# This file is available in the Crystallography Open Database (COD),
# http://www.crystallography.net/
#
# All data on this site have been placed in the public domain by the
# contributors.
#
data_1529333
loop_
_publ_author_name
'S.V. Misjul'
'M.S. Molokeev'
'L.V. Osokina'
'I.N. Saphonov'
_publ_section_title
;
 Structural Changes during Phase Transitions, Critical and Noncritical
 Order Parameters in the Elpasolite Cs2RbDyF6
;
_journal_issue                   4
_journal_name_full
'Journal of Siberian Federal University. Mathematics & Physics'
_journal_page_first              566
_journal_page_last               575
_journal_volume                  5
_journal_year                    2012
_chemical_formula_sum            'Cs2 Dy F6 Rb'
_chemical_formula_weight         627.79
_space_group_crystal_system      cubic
_space_group_IT_number           225
_space_group_name_Hall           '-F 4 2 3'
_space_group_name_H-M_alt        'F m -3 m'
_symmetry_space_group_name_Hall  '-F 4 2 3'
_symmetry_space_group_name_H-M   'F m -3 m'
_atom_sites_solution_hydrogens   .
_audit_creation_method           SHELXL-2014/7
_cell_angle_alpha                90
_cell_angle_beta                 90
_cell_angle_gamma                90
_cell_formula_units_Z            4
_cell_length_a                   9.659(4)
_cell_length_b                   9.659(4)
_cell_length_c                   9.659(4)
_cell_measurement_temperature    296(2)
_cell_volume                     901.1(6)
_computing_structure_refinement  'SHELXL-2014/7 (Sheldrick, 2014)'
_diffrn_ambient_temperature      296(2)
_diffrn_measured_fraction_theta_full 1.000
_diffrn_measured_fraction_theta_max 1.000
_diffrn_radiation_type           MoK\a
_diffrn_radiation_wavelength     0.71073
_diffrn_reflns_av_R_equivalents  0.0370
_diffrn_reflns_av_unetI/netI     0.0133
_diffrn_reflns_laue_measured_fraction_full 1.000
_diffrn_reflns_laue_measured_fraction_max 1.000
_diffrn_reflns_limit_h_max       13
_diffrn_reflns_limit_h_min       -13
_diffrn_reflns_limit_k_max       13
_diffrn_reflns_limit_k_min       -13
_diffrn_reflns_limit_l_max       13
_diffrn_reflns_limit_l_min       -12
_diffrn_reflns_number            2181
_diffrn_reflns_point_group_measured_fraction_full 1.000
_diffrn_reflns_point_group_measured_fraction_max 1.000
_diffrn_reflns_theta_full        25.000
_diffrn_reflns_theta_max         29.577
_diffrn_reflns_theta_min         3.654
_exptl_absorpt_coefficient_mu    21.646
_exptl_crystal_density_diffrn    4.627
_exptl_crystal_F_000             1068
_refine_diff_density_max         1.125
_refine_diff_density_min         -1.295
_refine_diff_density_rms         0.223
_refine_ls_extinction_coef       0.0010(3)
_refine_ls_extinction_expression Fc^*^=kFc[1+0.001xFc^2^\l^3^/sin(2\q)]^-1/4^
_refine_ls_extinction_method     'SHELXL-2014/7 (Sheldrick 2014'
_refine_ls_goodness_of_fit_ref   1.127
_refine_ls_hydrogen_treatment    undef
_refine_ls_matrix_type           full
_refine_ls_number_parameters     8
_refine_ls_number_reflns         95
_refine_ls_number_restraints     0
_refine_ls_restrained_S_all      1.127
_refine_ls_R_factor_all          0.0241
_refine_ls_R_factor_gt           0.0241
_refine_ls_shift/su_max          0.014
_refine_ls_shift/su_mean         0.006
_refine_ls_structure_factor_coef Fsqd
_refine_ls_weighting_details
'w=1/[\s^2^(Fo^2^)+(0.0529P)^2^+91.2528P] where P=(Fo^2^+2Fc^2^)/3'
_refine_ls_weighting_scheme      calc
_refine_ls_wR_factor_gt          0.1158
_refine_ls_wR_factor_ref         0.1158
_reflns_Friedel_coverage         0.000
_reflns_friedel_fraction_full    .
_reflns_friedel_fraction_max     .
_reflns_number_gt                95
_reflns_number_total             95
_reflns_threshold_expression     'I > 2\s(I)'
_cod_data_source_file            Cs2RbDyF6_293K.cif
_cod_data_source_block           a
_cod_original_cell_volume        901.2(10)
_cod_database_code               1529333
_shelx_shelxl_version_number     2014/7
_shelx_space_group_comment
;
The symmetry employed for this shelxl refinement is uniquely defined
by the following loop, which should always be used as a source of
symmetry information in preference to the above space-group names.
They are only intended as comments.
;
_shelx_res_file
;

    a.res created by SHELXL-2014/7

TITL a in Fm-3m
CELL 0.71073   9.6592   9.6592   9.6592  90.000  90.000  90.000
ZERR    4.00   0.0036   0.0036   0.0036   0.000   0.000   0.000
LATT  4
SYMM -X, -Y, Z
SYMM -X, Y, -Z
SYMM X, -Y, -Z
SYMM Z, X, Y
SYMM Z, -X, -Y
SYMM -Z, -X, Y
SYMM -Z, X, -Y
SYMM Y, Z, X
SYMM -Y, Z, -X
SYMM Y, -Z, -X
SYMM -Y, -Z, X
SYMM Y, X, -Z
SYMM -Y, -X, -Z
SYMM Y, -X, Z
SYMM -Y, X, Z
SYMM X, Z, -Y
SYMM -X, Z, Y
SYMM -X, -Z, -Y
SYMM X, -Z, Y
SYMM Z, Y, -X
SYMM Z, -Y, X
SYMM -Z, Y, X
SYMM -Z, -Y, -X
SFAC F RB CS DY
UNIT 24 4 8 4
TEMP 23.000

L.S. 4
BOND
FMAP 2
PLAN 20
ACTA 50

WGHT    0.052900   91.252800
EXTI    0.001031
FVAR       0.04756
MOLE   1
RB1   2    0.000000    0.000000    0.500000    10.02083    0.02252    0.02252 =
         0.02252    0.00000    0.00000    0.00000
DY2   4    0.000000    0.000000    0.000000    10.02083    0.01563    0.01563 =
         0.01563    0.00000    0.00000    0.00000
CS1   3    0.250000    0.250000    0.250000    10.04167    0.03982    0.03982 =
         0.03982    0.00000    0.00000    0.00000
F1    1    0.223820    0.000000    0.000000    10.12500    0.02462    0.12450 =
         0.12450    0.00000    0.00000    0.00000
MOLE   2
HKLF 4

REM  a in Fm-3m
REM R1 =  0.0241 for      95 Fo > 4sig(Fo)  and  0.0241 for all      95 data
REM      8 parameters refined using      0 restraints

END

WGHT      0.0072     50.1771

REM Highest difference peak  1.125,  deepest hole -1.295,  1-sigma level  0.223
Q1    1   0.0000  0.0678  0.5000  10.12500  0.05    1.13
Q2    1   0.3146  0.0000  0.0000  10.12500  0.05    0.76
Q3    1   0.2071  0.0752  0.0000  10.50000  0.05    0.65
Q4    1   0.1153  0.0000  0.0000  10.12500  0.05    0.54
Q5    1   0.2934  0.2066  0.2066  10.16667  0.05    0.44
Q6    1   0.1923  0.0450  0.0450  10.50000  0.05    0.43
Q7    1   0.0684  0.0000  0.0684  10.25000  0.05    0.35
Q8    1  -0.0904  0.1281  0.5000  10.50000  0.05    0.35
Q9    1   0.1217  0.2153  0.2153  10.50000  0.05    0.21
Q10   1   0.3100  0.0000  0.1494  10.50000  0.05    0.20
Q11   1   0.1457  0.1074  0.0000  10.50000  0.05    0.19
Q12   1   0.3074  0.0681  0.0681  10.50000  0.05    0.17
Q13   1   0.2208  0.2792  0.0722  10.50000  0.05    0.12
Q14   1   0.2033  0.1791  0.0000  10.50000  0.05    0.10
Q15   1   0.2211 -0.0642  0.1660  11.00000  0.05    0.09
Q16   1   0.3483 -0.0660  0.1272  11.00000  0.05    0.07
Q17   1   0.4312  0.1882  0.1882  10.50000  0.05    0.07
Q18   1   0.2878 -0.1457  0.0000  10.50000  0.05    0.05
Q19   1   0.2366  0.1105  0.1105  10.50000  0.05    0.02
Q20   1   0.2694 -0.0786  0.0786  10.50000  0.05    0.01
;
_shelx_res_checksum              65379
_shelx_hkl_file
;
  -1  -1   1   45.67    1.72
  -1   1  -1   48.20    2.00
   1  -1  -1   46.10    1.83
   1  -1  -1   46.60    1.90
   1  -1  -1   44.00    1.68
   1  -1   1   45.15    1.89
   1   1  -1   43.51    1.87
   1   1   1   44.48    2.06
  -2   0   0   17.68    0.75
   0  -2   0   17.69    0.95
   0   0  -2   19.33    1.03
   0   0  -2   14.56    0.82
   0   0   2   20.65    0.98
   2   0   0   17.31    0.92
   2   0   0   18.66    0.96
  -2  -2   0  748.80   24.66
  -2   0  -2  778.99   26.94
  -2   0  -2  722.14   24.54
  -2   0   2  729.77   24.65
  -2   2   0  703.12   26.91
   0  -2  -2  740.03   24.71
   0  -2   2  720.68   27.32
   0  -2   2  731.13   24.63
   0   2  -2  670.98   27.00
   0   2   2  757.88   27.54
   2  -2   0  691.66   27.45
   2  -2   0  718.47   24.50
   2   0  -2  649.09   26.78
   2   0  -2  719.87   27.30
   2   0   2  710.12   27.69
   2   2   0  696.71   26.68
   2   2   0  674.80   27.69
  -2  -2  -2   38.76    1.63
  -2  -2  -2   36.49    1.69
  -2  -2   2   36.64    1.62
  -2   2  -2   40.24    2.01
   2  -2  -2   39.12    1.71
   2  -2  -2   38.00    1.79
   2  -2  -2   37.11    1.58
   2  -2   2   37.18    1.78
   2  -2   2   36.40    1.45
   2   2  -2   36.21    1.80
   2   2  -2   37.44    1.72
   2   2   2   37.20    2.10
  -3  -1  -1   16.37    0.96
  -3  -1  -1   17.75    0.87
  -3  -1   1   18.66    0.87
  -3   1  -1   22.08    1.19
  -3   1   1   19.84    0.81
  -1  -3  -1   16.88    0.98
  -1  -3   1   17.49    0.92
  -1  -1  -3   19.52    1.02
  -1  -1  -3   17.44    0.89
  -1  -1   3   18.33    0.93
  -1   1  -3   19.28    1.16
  -1   1  -3   18.35    0.87
  -1   1   3   19.03    0.95
  -1   3  -1   18.75    1.14
  -1   3   1   20.44    0.99
   1  -3  -1   17.00    1.03
   1  -3  -1   17.58    0.96
   1  -3   1   18.57    0.98
   1  -3   1   17.87    0.86
   1  -1  -3   16.75    0.93
   1  -1  -3   16.43    0.90
   1  -1   3   16.10    0.98
   1   1  -3   18.51    1.14
   1   1   3   18.39    1.17
   1   3  -1   18.46    1.05
   1   3  -1   17.47    0.98
   1   3   1   17.71    1.11
   3  -1  -1   17.94    0.99
   3  -1  -1   18.71    0.96
   3  -1   1   16.74    1.02
   3   1  -1   19.63    0.99
   3   1  -1   17.79    1.00
   3   1   1   17.62    1.28
  -3  -3  -1    8.60    0.67
  -3  -3   1    9.12    0.66
  -3  -1  -3   10.34    0.78
  -3  -1  -3    9.55    0.61
  -3  -1   3    9.11    0.65
  -3   1  -3    9.62    1.00
  -3   1  -3    9.96    0.53
  -3   3  -1   10.84    0.93
  -3   3   1    9.53    0.77
  -1  -3  -3    7.82    0.67
  -1  -3   3    9.87    0.55
  -1  -3   3   10.10    0.68
  -1   3  -3    8.92    1.03
  -1   3   3    9.39    0.74
   1  -3  -3    9.27    0.57
   1  -3  -3   10.57    0.71
   1  -3   3    8.88    0.62
   1  -3   3    9.97    0.63
   1   3  -3   10.35    0.94
   1   3   3    8.44    0.91
   3  -3  -1    9.39    0.72
   3  -3  -1    8.92    0.55
   3  -3   1    9.35    0.73
   3  -3   1   10.42    0.52
   3  -1  -3    9.95    0.73
   3  -1  -3    9.59    0.64
   3  -1  -3   10.44    0.67
   3  -1   3   10.31    0.85
   3   1  -3    8.72    0.70
   3   1  -3    9.42    0.48
   3   1   3    8.38    1.04
   3   3  -1    8.96    0.63
   3   3  -1    7.99    0.97
   3   3   1   10.60    0.58
   3   3   1    9.44    1.13
  -3  -3  -3    7.37    0.56
  -3  -3  -3    7.39    0.77
  -3  -3   3    7.95    0.66
  -3   3  -3    7.36    1.01
   3  -3  -3    7.61    0.64
   3  -3  -3    8.06    0.72
   3  -3  -3    8.05    0.63
   3  -3   3    8.58    0.71
   3  -3   3    8.17    0.51
   3   3  -3    8.72    0.91
   3   3  -3    6.49    0.59
   3   3   3    9.15    1.17
  -4   0   0  993.53   32.45
   0  -4   0  929.59   36.44
   0  -4   0  934.47   32.73
   0   0  -4  974.55   35.75
   0   0  -4 1000.00   32.68
   0   0   4  838.31   36.34
   0   4   0  967.58   35.49
   4   0   0  947.56   35.52
   4   0   0  943.13   36.45
  -4   0  -2    7.07    0.81
  -4   0  -2    6.89    0.44
  -4   0   2    7.37    0.52
  -2  -4   0    4.80    0.61
  -2   4   0    7.91    0.73
   0  -2  -4    7.08    0.56
   0  -2  -4    7.31    0.60
   0  -2   4    6.16    0.46
   0  -2   4    6.63    0.56
   0   2  -4    7.79    0.96
   0   2   4    6.36    0.76
   2  -4   0    7.25    0.66
   2  -4   0    7.70    0.62
   2   4   0    6.40    0.50
   2   4   0    5.03    0.73
   4   0  -2    6.28    0.70
   4   0  -2    6.68    0.52
   4   0   2    5.90    0.82
  -4  -2   0    6.30    0.52
  -4   2   0    5.51    0.74
  -4   2   0    6.90    0.34
  -2   0  -4    8.11    0.75
  -2   0  -4    6.99    0.53
  -2   0   4    7.41    0.49
  -2   0   4    5.25    0.60
   0  -4  -2    6.80    0.74
   0  -4   2    7.48    0.60
   0  -4   2    7.10    0.60
   0   4  -2    7.12    0.88
   0   4   2    7.88    0.46
   0   4   2    6.53    0.77
   2   0  -4    6.47    0.73
   2   0   4    7.26    0.86
   4  -2   0    7.67    0.65
   4   2   0    6.60    0.54
   4   2   0    7.18    0.96
  -4  -2  -2  535.96   20.42
  -4  -2  -2  548.83   18.86
  -4  -2   2  576.26   18.83
  -4   2  -2  526.33   20.80
  -2  -4  -2  556.99   19.05
  -2  -4   2  541.04   18.91
  -2  -2  -4  546.96   20.36
  -2  -2   4  533.60   18.88
  -2   2  -4  534.37   20.83
  -2   2   4  548.90   20.86
  -2   4  -2  554.34   20.85
  -2   4   2  558.28   20.41
   2  -4  -2  562.60   21.10
   2  -4  -2  539.39   18.86
   2  -4   2  561.21   20.96
   2  -4   2  528.04   18.70
   2  -2  -4  529.71   20.39
   2  -2  -4  557.31   18.90
   2  -2   4  538.67   20.94
   2  -2   4  538.12   18.72
   2   2  -4  538.06   20.77
   2   2   4  531.32   21.34
   2   4  -2  524.03   20.56
   2   4  -2  513.86   20.96
   2   4   2  527.43   21.31
   4  -2  -2  519.31   20.48
   4  -2  -2  539.48   20.91
   4  -2  -2  544.05   18.71
   4  -2   2  559.23   21.09
   4   2  -2  538.24   20.46
   4   2  -2  499.97   20.82
   4   2   2  502.09   21.53
  -4  -4   0  597.26   20.32
  -4   0  -4  602.96   22.26
  -4   0  -4  588.77   20.04
  -4   0   4  596.37   20.28
  -4   4   0  564.01   22.21
   0  -4  -4  603.04   21.59
   0  -4  -4  585.47   20.45
   0  -4   4  582.39   22.31
   0  -4   4  583.19   20.28
   0   4  -4  580.35   22.54
   0   4   4  583.50   22.74
   4  -4   0  579.94   22.63
   4  -4   0  564.80   19.94
   4   0  -4  562.64   22.10
   4   0  -4  583.53   22.27
   4   0   4  577.74   22.88
   4   4   0  549.61   21.78
   4   4   0  538.25   23.16
  -4  -4  -2    5.60    0.53
  -4  -4  -2    5.85    0.75
  -4  -4   2    5.64    0.67
  -4  -2  -4    5.29    0.70
  -4  -2  -4    6.37    0.67
  -4  -2   4    5.91    0.72
  -4   2  -4    4.72    0.91
  -4   4  -2    6.34    0.97
  -4   4   2    6.89    0.83
  -2  -4  -4    6.40    0.75
  -2  -4   4    7.54    0.82
  -2   4  -4    7.15    1.08
  -2   4   4    6.22    0.76
   2  -4  -4    7.12    0.58
   2  -4  -4    6.28    0.74
   2  -4   4    6.39    0.70
   2  -4   4    6.46    0.64
   2   4  -4    6.51    0.96
   2   4   4    6.01    0.97
   4  -4  -2    6.56    0.79
   4  -4  -2    6.29    0.63
   4  -4   2    5.69    0.75
   4  -2  -4    6.45    0.76
   4  -2  -4    6.16    0.68
   4  -2  -4    6.11    0.70
   4  -2   4    6.13    0.82
   4  -2   4    5.54    0.46
   4   2  -4    4.92    0.75
   4   2   4    6.64    1.10
   4   4  -2    6.67    0.74
   4   4  -2    4.13    0.80
   4   4   2    8.89    1.34
  -4  -4  -4  416.60   14.46
  -4  -4   4  410.17   14.44
  -4   4  -4  375.56   16.11
   4  -4  -4  396.48   15.50
   4  -4  -4  400.67   16.02
   4  -4  -4  403.04   14.37
   4  -4   4  402.47   16.01
   4   4  -4  400.41   15.80
   4   4   4  407.34   16.74
  -5  -1  -1   36.60    1.90
  -5  -1  -1   36.80    1.61
  -5  -1   1   39.54    1.63
  -5   1  -1   36.93    2.03
  -5   1  -1   38.25    1.42
  -5   1   1   39.39    1.52
  -1  -5  -1   38.61    1.91
  -1  -5   1   35.07    1.79
  -1  -1  -5   37.36    2.04
  -1  -1  -5   37.43    1.75
  -1  -1   5   37.88    1.69
  -1  -1   5   37.12    1.76
  -1   1  -5   38.26    2.18
  -1   1  -5   38.41    1.73
  -1   1   5   37.88    1.90
  -1   5  -1   35.89    2.03
  -1   5   1   36.41    1.83
   1  -5  -1   39.08    2.06
   1  -5  -1   34.24    1.82
   1  -5   1   36.76    1.92
   1  -5   1   36.35    1.75
   1  -1  -5   34.58    1.93
   1  -1  -5   33.79    1.75
   1  -1   5   38.70    1.90
   1   1  -5   34.45    2.15
   1   1   5   36.00    2.08
   1   5  -1   38.35    1.96
   1   5  -1   38.38    2.01
   1   5   1   36.42    1.63
   1   5   1   37.18    2.08
   5  -1  -1   37.55    1.94
   5  -1  -1   39.68    1.90
   5  -1   1   36.17    2.01
   5   1  -1   37.81    1.86
   5   1  -1   36.47    1.93
   5   1   1   39.04    2.23
  -5  -1  -3   23.65    1.47
  -5  -1  -3   23.30    1.16
  -3  -1   5   22.24    1.30
   1   5   3   23.39    1.62
   3  -1  -5   22.09    1.41
  -5   1   3   22.63    1.18
  -3  -5  -1   23.99    1.41
  -1  -5   3   25.33    1.33
   3   1   5   26.18    1.75
  -3   5   1   26.34    1.51
  -1  -3  -5   22.67    1.20
  -1  -3  -5   23.40    1.35
   1  -5  -3   20.82    1.34
   5   3   1   25.32    1.30
  -1   3   5   25.11    1.49
   5   1  -3   24.64    1.45
   5   1  -3   20.59    1.15
   1  -3   5   21.97    1.24
   1  -3   5   25.11    1.28
   1   3  -5   25.79    1.81
  -3   1  -5   22.18    1.60
  -3   1  -5   24.53    1.21
   5  -3  -1   24.46    1.44
   3  -5   1   25.02    1.48
   3  -5   1   23.42    1.22
   3   5  -1   22.96    1.29
   3   5  -1   21.05    1.66
   5   3   1   21.75    1.91
   3  -1  -5   22.38    1.32
  -5   3  -1   24.26    1.62
  -5  -3   1   23.44    1.27
   5  -1   3   20.22    1.54
  -1   5  -3   22.25    1.70
  -1  -5   3   25.46    1.38
   5   1   3   23.53    1.75
   1  -3  -5   22.12    1.33
   5  -1  -3   21.96    1.26
   5  -1  -3   24.29    1.44
  -5   3   1   23.29    1.51
  -5   3   1   22.11    1.02
  -3  -1  -5   21.22    1.40
  -3  -1  -5   24.10    1.23
  -5  -1   3   24.74    1.26
   1   3   5   25.50    1.67
   3  -5  -1   23.02    1.46
  -3   1   5   22.44    1.21
  -1  -5  -3   21.66    1.41
  -3  -5   1   22.41    1.34
  -5  -3  -1   22.50    1.27
   1  -3  -5   24.30    1.24
  -1   5   3   26.41    1.21
  -1   5   3   24.74    1.57
  -1  -3   5   24.39    1.35
   1  -5   3   25.81    1.39
   1  -5   3   23.91    1.31
   1   5  -3   25.33    1.69
  -5   1  -3   20.53    1.57
  -5   1  -3   23.45    0.97
   3   5   1   24.01    1.80
   3  -1   5   23.35    1.50
   3   1  -5   22.76    1.56
  -3   5  -1   24.93    1.62
   3  -5  -1   23.01    1.25
   5  -3   1   22.46    1.44
   5   3  -1   22.44    1.31
   5   3  -1   20.35    1.59
  -1   3  -5   22.06    1.73
   3   5   1   23.13    1.10
  -5  -3  -3   15.67    1.10
  -5  -3  -3   17.44    1.12
  -5  -3   3   16.97    1.09
  -5   3  -3   13.33    1.52
  -3  -5  -3   16.10    1.19
  -3  -5   3   18.13    1.19
  -3  -3  -5   16.44    1.12
  -3  -3   5   14.85    1.08
  -3   3  -5   17.15    1.77
  -3   3   5   17.01    1.11
  -3   5  -3   16.21    1.49
  -3   5   3   17.44    1.16
   3  -5  -3   18.93    1.33
   3  -5  -3   15.24    1.07
   3  -5   3   16.24    1.17
   3  -5   3   15.55    0.94
   3  -3  -5   16.21    1.08
   3  -3  -5   15.47    1.10
   3  -3   5   16.01    1.15
   3  -3   5   17.01    0.97
   3   3  -5   17.32    1.46
   3   3   5   18.54    1.62
   3   5  -3   19.10    1.36
   3   5  -3   13.04    1.26
   3   5   3   17.18    1.58
   5  -3  -3   16.88    1.20
   5  -3  -3   16.10    1.14
   5  -3  -3   17.08    1.04
   5  -3   3   16.26    1.26
   5   3  -3   15.79    1.17
   5   3   3   15.86    1.84
  -5  -5  -1   23.04    1.41
  -5  -5   1   21.00    1.35
  -5  -1  -5   23.05    1.57
  -5  -1  -5   23.35    1.20
  -5  -1   5   20.33    1.31
  -5   1  -5   19.82    1.65
  -5   1   5   21.37    1.31
  -5   5  -1   21.22    1.67
  -5   5   1   22.91    1.60
  -1  -5  -5   20.85    1.44
  -1  -5   5   22.78    1.39
  -1   5  -5   26.86    2.08
  -1   5   5   19.46    1.50
   1  -5  -5   21.18    1.45
   1  -5   5   22.74    1.33
   1  -5   5   22.17    1.35
   1   5  -5   24.39    1.90
   1   5   5   23.44    1.73
   5  -5  -1   20.24    1.49
   5  -5   1   22.47    1.54
   5  -1  -5   22.54    1.51
   5  -1  -5   21.15    1.28
   5  -1   5   19.54    1.56
   5   1  -5   23.07    1.57
   5   1   5   24.36    1.81
   5   5  -1   22.14    1.30
   5   5  -1   17.31    2.00
   5   5   1   21.73    1.19
   5   5   1   24.24    2.51
  -5  -5  -3   18.34    1.30
  -5  -5   3   17.47    1.26
  -5  -3  -5   18.98    1.20
  -5  -3   5   18.39    1.27
  -5   3  -5   19.89    1.76
  -5   5  -3   18.37    1.86
  -5   5   3   19.00    1.40
  -3  -5  -5   19.00    1.32
  -3  -5   5   16.43    1.25
  -3   5  -5   16.97    1.94
  -3   5   5   17.50    1.35
   3  -5  -5   18.18    1.18
   3  -5  -5   16.12    1.25
   3  -5   5   18.80    1.30
   3   5  -5   17.30    1.82
   3   5   5   18.62    1.71
   5  -5  -3   16.18    1.34
   5  -5  -3   17.64    1.17
   5  -5   3   19.57    1.44
   5  -3  -5   16.64    1.29
   5  -3  -5   16.60    1.27
   5  -3  -5   20.02    1.31
   5  -3   5   17.43    1.40
   5   3  -5   18.30    1.47
   5   3   5   18.62    2.07
   5   5  -3   17.96    1.34
   5   5   3   23.02    2.44
  -5  -5  -5   10.62    1.12
  -5  -5   5   11.59    1.24
  -5   5  -5    5.95    1.25
   5  -5  -5   13.38    1.12
   5  -5  -5   10.06    1.23
   5  -5  -5   11.76    1.22
   5  -5   5   10.17    1.19
   5   5  -5   12.40    1.45
   5   5   5   11.26    1.69
  -6   0   0    5.06    0.47
   0  -6   0    5.33    0.77
   0  -6   0    4.74    0.70
   0   0  -6    6.11    0.95
   0   0  -6    4.53    0.63
   0   0   6    4.99    0.69
   0   6   0    4.47    0.69
   6   0   0    6.22    0.78
   6   0   0    4.78    0.71
  -6   0  -2  389.27   15.52
  -6   0  -2  410.20   13.79
  -6   0   2  403.88   13.91
  -2  -6   0  404.89   14.33
  -2   6   0  400.88   15.43
   0  -2  -6  396.34   15.37
   0  -2  -6  402.62   14.21
   0  -2   6  396.66   15.35
   0  -2   6  400.19   14.13
   0   2  -6  385.60   15.83
   0   2   6  407.88   15.87
   2  -6   0  406.43   15.81
   2  -6   0  372.18   14.15
   2   6   0  393.64   15.09
   2   6   0  385.52   16.00
   6   0  -2  398.33   15.38
   6   0  -2  380.30   15.54
   6   0   2  397.17   16.08
   0   6  -2  398.07   15.66
   0   6   2  395.63   15.97
   2   0  -6  391.07   15.65
   2   0   6  391.55   15.80
   6  -2   0  386.98   15.75
   6   2   0  410.84   15.26
   6   2   0  395.63   16.02
   0  -6  -2  385.65   14.32
   0  -6   2  390.37   15.68
   0  -6   2  393.85   14.21
  -2   0   6  408.15   15.47
  -2   0   6  413.91   14.20
  -2   0  -6  383.79   15.57
  -2   0  -6  411.26   14.09
  -6  -2   0  392.51   13.95
  -6   2   0  379.07   15.55
   2   2  -6   -0.12    0.43
  -2   6   2    0.36    0.31
   2  -2   6    0.17    0.27
   2  -2   6    0.42    0.24
   6   2  -2    0.58    0.32
   6   2  -2    0.58    0.32
   6   2   2    0.49    0.47
   2   2   6    2.44    0.65
   2   6  -2    0.59    0.42
   2   6  -2    0.20    0.42
   2   6   2    0.57    0.48
   6  -2  -2    0.14    0.30
   6  -2  -2    1.34    0.36
   6  -2   2    0.33    0.36
  -6  -2  -2    0.41    0.35
  -6  -2  -2    0.76    0.31
  -6  -2   2    0.24    0.25
  -6   2  -2    0.50    0.40
  -6   2   2    1.01    0.25
  -2  -6  -2    1.03    0.40
  -2  -6   2    0.62    0.32
  -2  -2  -6    0.67    0.43
  -2  -2  -6    0.37    0.28
  -2  -2   6    0.30    0.26
  -2   2  -6    1.08    0.56
  -2   2   6    0.52    0.31
  -2   6  -2    0.33    0.43
   2  -2  -6    0.17    0.26
   2  -6  -2    0.68    0.36
   2  -6  -2   -0.24    0.23
   2  -6   2    0.80    0.37
   2  -6   2    0.04    0.26
   2  -2  -6    0.13    0.30
   6   0   4    4.21    0.86
   4   6   0    3.79    1.01
   6   0  -4    5.16    0.79
   6   0  -4    6.46    0.58
  -6   0  -4    4.54    0.85
  -6   0   4    4.35    0.60
  -4  -6   0    3.91    0.70
  -4   6   0    5.93    0.90
   0  -4  -6    4.54    0.74
   0  -4   6    4.25    0.67
   0   4  -6    5.17    1.03
   0   4   6    5.19    0.85
   4  -6   0    4.97    0.79
   4   6   0    5.57    0.60
   4   0   6    5.13    0.85
   6  -4   0    4.86    0.75
   6   4   0    5.23    0.64
   6   4   0    3.73    1.02
   0  -6  -4    4.66    0.75
   0  -6   4    4.92    0.67
   0  -6   4    4.94    0.73
   0   6  -4    4.33    0.96
   0   6   4    4.28    0.81
   4   0  -6    4.08    0.81
  -4   0   6    4.52    0.68
  -4   0  -6    4.81    0.60
  -6  -4   0    5.17    0.70
  -6   4   0    4.73    0.88
  -4   0  -6    5.18    0.87
   4  -2  -6  300.08   10.73
   2   4  -6  299.69   12.15
  -6  -2  -4  294.09   11.52
   2  -6  -4  284.32   10.74
   6   4   2  262.12   12.64
   4  -6   2  285.51   11.83
   4   6  -2  290.91   11.40
   4   6  -2  262.99   12.12
  -6  -4   2  292.61   10.57
  -6  -2  -4  309.36   10.42
  -2  -6   4  291.86   10.73
   6  -2   4  280.18   12.01
   6   2  -4  289.66   11.58
   6  -4  -2  284.30   11.76
  -2   4   6  290.11   11.75
  -2   6  -4  280.10   12.11
   2  -4   6  308.60   11.58
   2  -4   6  300.82   10.55
   4  -2  -6  281.29   11.49
  -6   2   4  275.59   10.42
  -4  -6  -2  281.48   10.75
   4   2   6  285.94   12.26
  -6   4  -2  294.12   11.95
  -4   6   2  288.89   11.50
  -2  -4  -6  280.22   10.67
  -4  -2   6  288.36   10.66
  -4   2  -6  305.04   12.07
   2   6   4  283.24   12.21
   2  -4  -6  293.09   10.76
   4   6   2  294.08   12.54
   4  -6  -2  284.71   10.48
  -4  -6   2  288.88   10.69
  -4   6  -2  278.49   11.85
  -6   4   2  294.62   11.70
  -4  -2  -6  304.99   11.45
  -4  -2  -6  297.73   10.50
   2   4   6  285.95   12.17
   6  -2  -4  290.93   11.58
  -4   2   6  285.94   11.46
  -2  -6  -4  294.61   10.79
   6  -2  -4  275.81   11.56
  -6   2  -4  271.01   11.84
  -2   6   4  297.47   11.94
   4  -6  -2  284.82   11.87
   2  -6   4  301.31   11.69
   2  -6   4  300.71   10.57
   2   6  -4  289.54   11.90
  -6  -4  -2  288.14   10.61
  -2  -4   6  290.52   10.69
  -2   4  -6  280.64   12.15
   4  -2   6  285.20   10.31
   4   2  -6  286.34   11.85
  -6  -4  -2  277.03   11.28
   6   2   4  292.74   12.41
   6  -4   2  297.86   11.92
   6   4  -2  298.26   11.42
   6   4  -2  268.07   11.78
  -6  -2   4  295.49   10.56
  -6  -4  -4    5.50    0.78
  -6  -4   4    5.51    0.80
  -6   4  -4    6.35    1.16
  -4  -6  -4    3.24    0.66
  -4  -6   4    5.86    0.85
  -4  -4  -6    4.18    0.71
  -4  -4   6    5.45    0.81
  -4   4  -6    4.32    1.14
  -4   4   6    6.28    0.83
  -4   6  -4    4.14    1.03
   4  -6  -4    6.22    0.97
   4  -6  -4    6.22    0.87
   4  -6   4    4.55    0.78
   4  -4  -6    5.43    0.77
   4  -4  -6    4.06    0.74
   4  -4   6    4.71    0.80
   4   4  -6    7.54    1.22
   4   4   6    7.06    1.27
   4   6  -4    4.68    0.92
   4   6   4    6.69    1.30
   6  -4  -4    4.48    0.80
   6  -4  -4    5.28    0.81
   6  -4  -4    8.54    0.93
   6  -4   4    5.00    0.87
   6   4  -4    5.91    0.92
   6   4   4    6.19    1.33
  -6  -6   0  208.39    8.06
  -6   0  -6  224.68    8.98
  -6   0   6  203.18    7.95
  -6   6   0  203.53    8.94
   0  -6   6  210.07    8.06
   0   6  -6  211.96    9.43
   0   6   6  204.32    9.09
   6  -6   0  209.26    8.98
   6   0  -6  213.26    8.86
   6   0   6  214.11    9.10
   6   6   0  192.66    9.66
  -6  -6  -2    2.57    0.62
  -6  -6   2    3.37    0.67
  -6  -2  -6    3.74    0.59
  -6  -2   6    3.63    0.67
  -6   2  -6    3.52    0.94
  -6   2   6    3.81    0.66
  -6   6  -2    3.52    0.93
  -6   6   2    2.90    0.75
  -2  -6  -6    3.28    0.72
  -2  -6   6    2.70    0.65
  -2   6  -6    2.34    0.98
  -2   6   6    3.35    0.76
   2  -6  -6    2.52    0.66
   2  -6   6    3.83    0.70
   2   6  -6    2.82    0.93
   2   6   6    4.39    0.97
   6  -6  -2    3.66    0.77
   6  -6   2    2.34    0.66
   6  -2  -6    3.24    0.71
   6  -2   6    3.99    0.81
   6   2  -6    2.92    0.75
   6   2   6    4.71    1.06
   6   6  -2    2.88    0.62
   6   6   2    4.17    1.25
  -6  -6  -4  161.17    6.54
  -6  -6   4  160.41    6.58
  -6  -4  -6  173.28    6.46
  -6  -4   6  159.38    6.57
  -6   4  -6  150.11    7.66
  -6   6  -4  149.92    7.52
  -6   6   4  159.90    7.08
  -4  -6  -6  165.19    6.58
  -4  -6   6  162.15    6.66
  -4   6  -6  149.33    7.76
  -4   6   6  165.52    7.25
   4  -6  -6  157.63    6.67
   4  -6   6  175.86    7.18
   4   6  -6  162.05    7.59
   4   6   6  171.74    7.93
   6  -6  -4  157.08    7.28
   6  -6   4  160.16    7.29
   6  -4  -6  160.06    6.99
   6  -4  -6  160.62    7.17
   6  -4  -6  160.21    6.58
   6  -4   6  169.48    7.36
   6   4  -6  171.49    7.48
   6   4   6  168.88    8.04
   6   6  -4  168.05    7.19
   6   6   4  171.25    8.28
  -6  -6  -6    3.72    0.75
  -6  -6   6    5.06    0.96
  -6   6  -6    5.13    1.31
   6  -6  -6    4.85    1.01
   6  -6   6    6.10    1.06
   6   6  -6    4.27    1.05
   6   6   6    5.67    1.35
  -7  -1  -1    7.11    0.95
  -7  -1  -1    8.52    0.76
  -7  -1   1    7.90    0.67
  -7   1  -1    9.03    1.11
  -1  -7  -1    8.66    1.04
  -1  -7   1    8.93    1.04
  -1  -1  -7    7.59    1.14
  -1  -1  -7    6.20    0.80
  -1  -1   7    7.47    0.84
  -1   1  -7    9.37    1.25
  -1   1   7    8.41    0.96
  -1   7  -1    7.79    1.08
   1  -7  -1    6.26    0.96
   1  -7  -1    8.54    0.98
   1  -7   1    7.18    0.93
   1  -7   1    8.45    0.94
   1  -1  -7    9.70    1.27
   1  -1  -7    7.33    0.91
   1  -1   7    7.92    0.83
   1  -1   7    7.18    0.79
   1   1  -7    7.76    1.24
   1   1   7    7.09    0.99
   1   7  -1    7.58    0.97
   1   7  -1    6.55    1.03
   1   7   1    8.56    1.19
   7  -1  -1    9.08    1.04
   7  -1  -1    8.17    0.94
   7  -1   1    7.06    0.98
   7   1  -1    7.26    0.89
   7   1  -1    7.90    0.96
   7   1   1    8.63    1.16
  -7  -1  -3    6.31    0.95
   3   1   7    7.81    1.11
  -7  -3   1    8.17    0.87
  -7   1   3    7.08    0.70
  -3  -7  -1    5.99    0.91
   7   1  -3    6.76    0.76
   3  -7   1    6.78    0.97
  -3   7   1    6.19    0.89
  -1  -3  -7    6.29    0.86
  -3   1  -7    7.43    0.81
   1   7   3    6.27    1.08
  -1   3   7    9.89    1.13
   7   3   1    7.52    0.86
   7   3   1    6.46    1.20
   1  -3   7    7.25    0.84
   1   3  -7    5.12    1.11
  -7   3  -1    6.10    1.05
   3  -1  -7    6.64    1.02
  -1  -7   3    7.38    0.97
  -3  -1   7    7.50    0.87
   3  -7   1    4.95    0.71
   3   7  -1    7.30    0.85
   3   7  -1    7.57    1.19
  -1   7  -3    6.50    1.16
   1  -7  -3    6.01    0.86
   7  -3  -1    7.80    0.96
   7  -1   3    4.98    0.93
   7   1  -3    6.33    0.87
  -3   1  -7    6.94    1.12
   7   1   3    7.51    1.19
  -7  -1   3    6.31    0.71
  -3  -7   1    6.90    0.95
   1   7  -3    7.09    0.99
  -1   3  -7    7.95    1.30
   3  -7  -1    5.12    0.88
   3  -7  -1    5.72    0.80
   3   7   1    6.98    1.23
   7  -1  -3    6.99    0.94
  -3   7  -1    7.50    1.09
   7  -3   1    5.91    0.89
   7   3  -1    6.08    0.79
   7   3  -1    5.86    0.98
   1  -3  -7    7.24    0.83
   3   1  -7    7.69    1.25
  -1   7   3    4.95    0.90
   7  -1  -3    7.05    0.80
   1  -7   3    7.77    0.95
   1  -7   3    7.77    0.93
   3  -1   7    8.03    0.95
  -1  -3   7    6.99    0.84
  -3   1   7    7.80    0.92
  -1  -7  -3    6.16    0.92
   1  -3  -7    5.30    0.82
   1   7  -3    5.80    1.02
  -7  -3  -1    6.66    0.78
  -7   1  -3    7.01    1.06
   1   3   7    8.11    1.14
  -7   3   1    6.94    1.07
  -3  -1  -7    7.28    1.07
  -3  -1  -7    7.47    0.83
  -3   3  -7    9.23    1.46
  -3   3   7    9.10    0.97
  -3  -7   3    8.53    1.05
  -3  -3  -7    8.62    0.95
  -3  -3   7    8.28    1.01
  -3  -7  -3    7.70    1.04
   3  -7  -3    8.75    1.04
   3  -7   3    7.12    0.98
   3  -3  -7    7.01    0.93
   3  -3  -7    6.37    0.91
  -7   3  -3    8.34    1.25
   3  -3   7    8.35    0.84
   3   3  -7    8.79    1.48
   3   3   7    7.89    1.30
   3   7  -3    8.22    1.14
   3   7   3    8.28    1.39
   7  -3  -3    9.53    1.15
   7  -3  -3    7.88    0.93
   7  -3   3    7.61    1.12
   7   3  -3    8.55    1.01
   7   3   3    6.99    1.39
  -3   7  -3    9.72    1.39
   3  -7  -3    5.63    1.00
   3  -3   7    9.18    1.00
  -7  -3  -3    7.99    0.99
  -7  -3  -3    9.31    0.96
  -7  -3   3    7.88    0.92
   5  -7   1    9.32    1.22
   5   7  -1    8.26    1.54
   1  -7  -5    8.31    1.12
  -7   1   5    8.48    0.94
   7  -1   5    7.77    1.21
   7   1  -5   10.82    1.27
   5  -1  -7    7.33    1.14
  -1   5   7    9.85    1.23
  -7  -5   1   10.03    1.07
   1  -5   7    9.32    1.05
   1   5  -7    9.38    1.51
   1   7   5    6.91    1.21
  -5  -1   7   10.05    1.10
  -7  -1  -5   10.24    1.25
   7  -5  -1    9.27    1.17
   5   1   7   10.24    1.33
  -1  -7   5   10.60    1.17
  -5  -7  -1    8.47    1.06
   7   5   1    5.74    1.39
  -5   1  -7    7.96    1.29
  -5   7   1    8.62    1.17
  -1  -5  -7    7.41    1.04
  -7   5  -1    9.88    1.38
  -1   7  -5    9.27    1.57
   5  -1   7    8.29    1.10
   1   5   7   10.65    1.37
  -7   1  -5    7.71    1.20
   7   1   5   11.60    1.46
   7  -5   1    8.19    1.10
   7   5  -1    9.05    0.96
   5   7   1    6.62    1.47
  -5  -7   1    7.57    1.01
  -1  -5   7    8.50    1.06
  -1   5  -7    8.38    1.48
  -7  -1   5    7.74    0.92
  -1   7   5    8.75    1.24
  -5   7  -1    8.21    1.21
   1  -7   5    9.01    1.07
   1   7  -5    8.10    1.41
   7  -1  -5    8.79    1.12
   7   5  -1    7.29    1.25
  -5   1   7    8.58    1.02
  -1  -7  -5    9.49    1.17
  -5  -1  -7   12.34    0.93
   5  -7  -1   11.78    1.34
  -7   5   1   10.24    1.34
  -7  -5  -1    9.00    1.04
   1  -5  -7    8.62    1.12
   5   1  -7   11.07    1.42
  -5  -1  -7   12.20    1.34
  -3   7  -5    5.79    1.29
   7  -3   5    7.88    1.21
   7   3  -5    8.22    1.17
  -3  -7   5    7.42    1.04
  -5  -3   7    7.47    1.02
   7   5   3    8.41    1.69
   5   7  -3    7.59    1.05
   5  -3  -7    7.01    1.01
   3   5  -7    8.66    1.48
  -7   3   5    7.52    0.90
  -5  -7  -3    9.00    1.12
   5  -7   3    7.06    1.07
   7  -5  -3    7.85    1.06
  -3   5   7    6.76    1.02
  -3  -5  -7    8.69    1.08
   5  -3  -7   10.35    1.21
   3  -7  -5    7.18    1.03
  -5   3  -7    6.57    1.30
   5   3   7    7.91    1.37
   3   7   5    5.86    1.20
  -7   5  -3    8.33    1.33
  -7  -5   3    6.37    0.92
  -7  -5  -3    8.63    1.03
  -3  -5   7    8.86    1.11
   7  -3  -5   10.19    1.23
  -7   5   3    8.63    1.23
  -5  -3  -7    8.30    0.95
  -7  -3   5    9.12    1.05
   5  -7  -3    7.85    1.17
  -3  -7  -5    7.61    1.02
   5   7   3    6.40    1.37
  -5  -7   3    6.83    0.99
  -3   7   5    7.06    1.09
   3   5   7    8.49    1.37
   3  -7   5    8.76    1.09
   3   7  -5   10.02    1.47
  -5   7  -3    9.48    1.42
   3  -5  -7    8.84    1.18
   7  -3  -5    6.84    0.94
   5  -3   7    7.74    1.04
   5   3  -7    6.44    1.21
   7   3   5    8.07    1.47
  -3   5  -7    7.61    1.51
   7  -5   3    7.39    1.14
   7   5  -3    7.93    1.03
  -7   3  -5    6.98    1.25
  -7  -5  -5    9.12    1.09
  -7  -5   5    8.68    1.12
  -7   5  -5   10.07    1.58
  -7   5   5   10.98    1.34
  -5  -7  -5    9.85    1.17
  -5  -7   5    9.44    1.22
  -5  -5  -7    8.44    1.09
  -5  -5   7    7.77    1.08
  -5   5  -7    5.69    1.39
  -5   5   7    8.16    1.12
  -5   7  -5    8.23    1.52
   5  -7  -5    9.70    1.35
   5  -7  -5    9.34    1.22
   5  -7   5    8.22    1.19
   5  -5  -7    8.22    1.20
   5  -5   7    9.44    1.20
   5   5  -7    9.60    1.53
   5   5   7    9.39    1.54
   5   7  -5    7.93    1.33
   5   7   5    8.24    1.60
   7  -5  -5    9.08    1.19
   7  -5   5    9.43    1.30
   7   5  -5    9.15    1.30
   7   5   5    9.21    1.75
  -7  -7  -1    6.67    1.02
  -7  -7   1    4.56    0.85
  -7  -1   7    6.58    0.98
  -7   1  -7    5.45    1.15
  -7   1   7    4.77    0.84
  -7   7  -1    4.52    1.05
  -7   7   1    4.24    0.97
  -1  -7  -7    6.26    1.04
  -1  -7   7    7.88    1.14
  -1   7  -7    7.00    1.50
  -1   7   7    7.98    1.27
   1  -7  -7    3.91    0.86
   1  -7   7    7.45    1.06
   1   7  -7    6.87    1.47
   1   7   7    4.14    1.06
   7  -7  -1    6.73    1.11
   7  -7   1    6.04    1.05
   7  -1  -7    5.83    1.05
   7  -1   7    4.80    0.93
   7   1  -7    5.24    1.07
   7   1   7    7.25    1.21
   7   7   1    6.35    1.68
  -7  -7  -3    6.46    1.01
  -7  -7   3    7.96    1.11
  -7  -3   7    6.84    1.03
  -7   3  -7    4.70    1.29
  -7   3   7    7.16    0.98
  -7   7  -3    7.90    1.39
  -7   7   3    8.22    1.27
  -3  -7  -7    6.84    1.05
  -3  -7   7    9.05    1.19
  -3   7  -7    4.67    1.40
  -3   7   7    8.54    1.30
   3  -7  -7    5.98    1.11
   3   7  -7    6.70    1.43
   3   7   7    7.80    1.40
   7  -7  -3    6.83    1.17
   7  -7   3    6.76    1.16
   7  -3  -7    5.36    1.01
   7  -3   7    6.77    1.08
   7   3  -7    7.22    1.31
   7   3   7    8.49    1.43
   7   7  -3    6.95    1.04
   7   7   3    6.94    1.67
  -7  -7  -5    4.35    0.85
  -7  -7   5    4.66    0.97
  -7  -5  -7    4.77    0.89
  -7  -5   7    4.52    0.92
  -7   5  -7    5.82    1.44
  -7   7  -5    5.64    1.40
  -5  -7  -7    4.60    0.91
  -5  -7   7    4.52    0.96
  -5   7  -7    5.01    1.42
  -5   7   7    4.30    1.00
   5  -7  -7    5.41    1.10
   5   7  -7    5.42    1.34
   5   7   7    4.48    1.33
   7  -7  -5    6.15    1.15
   7  -7   5    5.16    1.11
   7  -5   7    5.36    1.04
   7   5  -7    6.10    1.32
   7   5   7    6.12    1.41
   7   7  -5    5.60    1.16
   7   7   5    3.09    1.28
  -7  -7  -7    8.06    1.15
  -7  -7   7    7.11    1.24
  -7   7  -7    5.66    1.53
   7  -7   7    8.10    1.31
   7   7  -7    7.06    1.59
   7   7   7    6.79    1.70
  -8   0   0  285.61   11.55
   0  -8   0  280.33   10.72
   0   0  -8  300.75   11.92
   0   0  -8  272.13   10.49
   0   8   0  270.71   11.92
   8   0   0  287.90   11.79
  -8   0  -2    5.09    0.94
  -2  -8   0    7.27    1.04
  -2   8   0    5.31    0.91
   0  -2  -8    6.34    1.08
   0  -2  -8    7.51    0.94
   0  -2   8    5.98    0.80
   0   2  -8    4.38    1.05
   0   2   8    6.18    1.02
   2  -8   0    4.86    0.88
   2  -8   0    4.89    0.83
   2   8   0    5.18    1.04
   8   0  -2    4.76    0.81
   8   0  -2    4.98    0.79
   8   0   2    6.03    1.09
   0  -8   2    6.25    0.94
   0   8  -2    6.49    1.11
   0   8   2    4.20    0.93
   2   0  -8    5.36    1.16
   2   0   8    6.16    0.89
   8  -2   0    5.77    0.92
   8   2   0    5.47    0.81
   8   2   0    5.27    0.97
  -2   0  -8    5.57    1.05
  -2   0  -8    6.17    0.84
  -2   0   8    4.09    0.73
   0  -8  -2    5.88    0.91
   0  -8   2    5.24    0.89
  -8   2   0    6.09    1.04
  -8  -2   0    6.79    0.75
  -2  -2  -8  208.22    8.32
  -2   2  -8  216.42    9.55
  -2   8  -2  219.65    9.39
   2  -8  -2  215.88    9.50
   2  -8  -2  214.83    8.41
   2  -8   2  221.33    9.33
   2  -8   2  209.65    8.32
  -8  -2   2  221.39    8.11
  -2  -2   8  219.89    8.37
  -2  -8   2  221.87    8.55
   8  -2   2  224.90    9.59
   8   2  -2  216.09    8.95
   8   2  -2  216.79    9.12
   8   2   2  226.77    9.86
   2  -2  -8  218.41    9.12
   2  -2  -8  216.27    8.49
   2  -2   8  217.19    8.17
   2   2  -8  239.69    9.94
   2   2   8  227.66    9.56
   2   8  -2  224.11    9.14
   2   8  -2  208.13    9.49
   2   8   2  227.03    9.87
   8  -2  -2  211.78    9.13
  -8  -2  -2  223.25    9.11
  -2  -8  -2  217.48    8.61
  -8   2  -2  198.74    9.24
  -8   2   2  224.33    9.32
   4   0  -8  208.98    8.88
  -8  -4   0  200.62    7.63
  -8   4   0  197.25    8.73
  -4   0  -8  216.33    8.74
  -4   0  -8  200.55    7.57
  -4   0   8  204.05    7.83
   0  -8  -4  194.51    7.90
   0  -8   4  205.43    7.90
   0   8  -4  190.23    8.88
   0   8   4  203.85    9.06
   4   0   8  198.67    8.57
  -8   0   4  197.51    7.49
  -4  -8   0  200.74    7.99
  -4   8   0  212.48    8.57
   0  -4  -8  197.96    7.93
   0  -4   8  196.50    7.76
   0   4  -8  191.04    9.05
   0   4   8  207.13    8.81
   4  -8   0  206.86    8.78
   4   8   0  174.58    9.10
   8   0  -4  192.82    8.43
   8   0   4  201.71    9.05
   8   4   0  204.81    8.17
   8   4   0  189.76    8.95
   8  -4   0  198.68    8.67
  -8  -4   2    5.92    0.85
   2   8   4    9.10    1.47
   2  -4   8    6.10    0.85
   4   2   8    5.59    1.11
  -2  -4  -8    6.11    0.93
  -4   2  -8    6.51    1.25
   8  -2   4    5.47    1.05
  -2   4   8    7.30    1.05
  -8  -2  -4    6.86    1.05
  -4  -8  -2    4.80    0.89
   2   4  -8    9.03    1.55
   8   4   2    6.17    1.33
  -2  -8   4    6.51    1.03
   4  -8   2    6.57    1.05
  -8   4  -2    6.40    1.16
   4  -2  -8    7.40    1.13
  -4  -2   8    6.49    0.94
   8  -4  -2    7.57    1.04
   8   2  -4    6.40    0.97
  -2   8  -4    5.10    1.20
   2  -8  -4    5.95    0.99
  -2   4  -8    6.28    1.36
  -4  -8   2    8.28    1.12
   8  -2  -4    7.30    1.07
   2   4   8    7.59    1.27
   4  -8  -2    5.76    1.03
  -4  -2  -8    5.43    0.80
   8  -2  -4    6.32    0.85
  -2  -4   8    6.79    0.97
  -4   2   8    7.25    0.96
  -8   2  -4    6.92    1.20
  -8   4   2    4.89    1.02
   8   2   4    6.10    1.25
  -2  -8  -4    5.37    0.89
   2  -8   4    6.81    1.00
  -8  -4  -2    5.99    0.85
   4   8   2    7.29    1.46
   8  -4   2    5.24    1.00
   2   8  -4    6.28    1.17
  -8  -2   4    6.84    0.86
  -2   8   4    5.87    1.09
   4  -2   8    4.83    0.83
   4   2  -8    6.66    1.36
  -4   8  -2    7.37    1.25
   2  -4  -8    7.20    1.09
   8   4  -2    6.74    0.89
  -8   4  -4  148.05    7.06
   4   4  -8  156.43    7.43
  -4   8  -4  153.45    7.20
   4  -8  -4  141.06    6.98
   4  -8  -4  152.54    6.21
   4  -8   4  157.14    6.88
   4  -4  -8  150.66    6.37
  -4   4  -8  147.03    7.43
   8   4  -4  147.81    6.62
   8   4   4  145.53    7.63
  -4  -8  -4  147.98    6.26
  -4  -8   4  149.99    6.29
  -4  -4  -8  155.17    6.15
  -4  -4   8  146.81    6.21
   4   4   8  157.15    7.35
   4   8  -4  152.30    6.90
   4   8   4  146.79    7.51
   8  -4  -4  144.61    6.67
  -8  -4   4  140.68    6.04
  -8   4   4  153.70    6.86
  -6  -8   0    6.50    1.03
  -6   8   0    7.36    1.20
  -8   0  -6    6.69    1.14
   0  -6   8    6.31    1.01
   0   6  -8    4.35    1.24
   0   6   8    5.18    1.08
   6  -8   0    5.43    1.07
   6   8   0    5.70    1.56
   8   0  -6    5.83    1.03
   8   0   6    6.64    1.16
   0  -6  -8    6.60    1.13
  -8  -6   0    8.05    1.08
  -8   0   6    6.21    0.92
  -6   0  -8    6.30    1.15
  -6   0   8    5.23    0.90
   0  -8  -6    5.77    1.00
   0  -8   6    6.30    1.03
   0   8  -6    6.24    1.41
   0   8   6    4.78    1.09
   6   0  -8    5.66    1.17
   6   0   8    6.18    1.05
   8  -6   0    5.87    1.04
  -8   6   0    5.06    1.06
   8  -2   6  124.91    6.03
   2   8   6  129.13    6.44
   6  -2  -8  120.25    5.78
  -6  -8  -2  117.18    5.36
   6   2   8  129.35    6.16
  -8   6  -2  115.49    5.96
   8   2  -6  123.45    5.88
  -2   8  -6  130.11    6.68
   8   6   2  116.74    6.89
   2  -8  -6  128.71    5.57
   6  -8   2  119.14    5.96
   8  -6  -2  119.71    5.91
  -6  -2   8  118.14    5.31
  -6   2  -8  123.40    6.16
  -8  -6   2  122.81    5.26
   2   6  -8  132.21    6.56
  -2  -8   6  124.01    5.42
  -2   6   8  126.59    5.92
   2   8  -6  113.29    6.16
   2  -6  -8  120.81    5.55
   6  -2   8  129.88    5.79
  -6   2   8  128.04    5.29
   6   2  -8  128.04    6.34
  -2  -6   8  120.26    5.35
  -8   6   2  123.54    5.93
  -8   2  -6  123.67    6.05
  -2  -8  -6  123.78    5.42
  -6  -8   2  121.20    5.37
  -8  -2   6  118.73    5.15
  -2   6  -8  120.53    6.63
   8  -6   2  120.37    5.98
  -2   8   6  122.16    6.07
  -6   8  -2  115.15    5.95
   2   6   8  122.38    6.18
   6  -8  -2  123.52    6.00
   8   6  -2  124.17    5.46
   6   8   2  119.09    6.81
   8  -2  -6  124.41    5.80
  -8  -6  -2  130.45    5.32
   8   2   6  132.71    6.32
  -4  -8   6    6.43    1.09
   8  -4   6    8.16    1.31
   8   4  -6    5.05    1.10
   6  -8   4    6.29    1.14
   6   8  -4    7.06    1.22
  -8   6  -4    7.14    1.37
  -6   4  -8    6.59    1.51
   6   4   8    4.85    1.28
   8  -6  -4    6.22    1.09
  -6  -8  -4    6.22    1.00
  -8  -6   4    5.69    0.97
   8   6   4    4.66    1.51
  -4  -6  -8    6.01    0.99
  -4   8  -6    2.86    1.24
  -6  -4   8    5.95    1.01
  -4   6   8    6.52    1.09
   4  -8  -6    5.23    1.06
   4   6  -8    8.32    1.64
   4   8   6    6.29    1.44
   8   4   6    6.53    1.41
   4   6   8    7.67    1.48
  -6  -8   4    6.53    1.10
   6   8   4    6.55    1.69
  -8  -6  -4    5.22    0.91
  -6  -4  -8    6.73    0.97
  -4   6  -8    7.20    1.64
  -4  -6   8    4.92    0.92
  -6   4   8    6.65    1.01
  -4  -8  -6    3.58    0.79
   4  -6  -8    4.45    1.03
   8  -4  -6    6.72    1.16
  -4   8   6    6.68    1.23
   6  -8  -4    6.14    1.18
   4   8  -6    7.49    1.44
  -8   6   4    5.31    1.10
   6  -4   8    7.57    1.13
   6   4  -8    5.82    1.33
  -8  -4   6    6.13    1.00
  -8   4  -6    5.48    1.31
   8  -6   4    7.11    1.26
   8   6  -4    8.21    1.22
  -6   8  -4    5.57    1.33
  -8  -6   6   69.33    3.80
  -8   6  -6   72.41    4.70
  -6  -8  -6   78.42    3.78
  -6  -8   6   73.71    3.92
  -6  -6  -8   89.57    3.89
  -6  -6   8   72.32    3.90
  -6   6  -8   72.11    4.90
  -6   8   6   83.18    4.42
   6  -8   6   76.62    4.25
   6  -6  -8   76.74    4.07
   6   6  -8   75.67    4.69
   6   6   8   77.45    4.81
   6   8  -6   86.91    4.66
   6   8   6   81.04    5.12
   8  -6   6   76.55    4.37
   8   6  -6   71.85    4.31
   8   6   6   83.01    5.21
  -8  -8   0   90.50    4.22
  -8   0   8   86.68    4.08
  -8   8   0   81.71    4.54
   0  -8  -8   80.60    4.30
   0  -8   8   80.13    4.19
   0   8  -8   86.06    5.29
   0   8   8   83.86    4.81
   8  -8   0   85.98    4.75
   8   0  -8   84.59    4.70
   8   0   8   90.62    4.60
  -8  -8  -2    8.29    1.23
  -8  -8   2    7.56    1.18
  -8  -2   8    5.45    0.99
  -8   2  -8    6.11    1.44
  -8   2   8    5.06    0.94
  -8   8  -2    5.67    1.24
  -8   8   2    5.92    1.23
  -2  -8  -8    6.84    1.15
  -2  -8   8    4.95    1.10
  -2   8  -8    7.52    1.77
  -2   8   8   10.08    1.52
   2  -8  -8    6.07    1.22
   2   8  -8    6.21    1.52
   2   8   8    7.33    1.50
   8  -8  -2    6.12    1.19
   8  -8   2    6.71    1.26
   8  -2  -8    8.01    1.33
   8  -2   8    7.72    1.24
   8   2  -8    6.89    1.42
   8   2   8    8.08    1.41
   8   8   2    7.94    2.02
  -8  -8  -4   71.28    3.56
  -8  -8   4   69.90    3.67
  -8  -4   8   61.01    3.46
  -8   4  -8   68.72    4.37
  -8   8  -4   70.09    4.32
  -4  -8  -8   69.71    3.60
  -4  -8   8   67.48    3.74
  -4   8  -8   66.39    4.86
  -4   8   8   71.48    4.11
   4  -8  -8   69.18    3.92
   4   8  -8   67.78    4.49
   4   8   8   67.07    4.46
   8  -8  -4   69.55    4.09
   8  -8   4   72.84    4.21
   8  -4  -8   57.08    3.67
   8  -4   8   68.58    3.92
   8   4  -8   72.27    4.40
   8   4   8   68.00    4.32
   8   8   4   71.68    5.10
  -8  -8  -6    4.93    0.97
  -8  -8   6    6.69    1.26
  -8  -6   8    7.87    1.35
  -8   6  -8    4.15    1.44
  -6  -8  -8    8.47    1.26
  -6  -8   8    4.12    1.07
  -6   8  -8    4.99    1.65
   6   8  -8    5.04    1.51
   6   8   8    4.76    1.50
   8  -8  -6    4.39    1.16
   8  -8   6    5.95    1.32
   8  -6   8    5.64    1.19
   8   6  -8    4.35    1.44
   8   6   8    4.10    1.40
   8   8  -6    5.27    1.41
   8   8   6    3.83    1.56
  -9  -1  -1   16.24    1.70
  -9   1  -1   13.03    1.61
  -9   1   1   16.43    1.73
  -1  -9  -1   16.51    1.66
  -1  -9   1   16.11    1.63
  -1  -1  -9   16.72    1.86
  -1  -1  -9   14.64    1.42
  -1  -1   9   15.76    1.23
  -1   1  -9   12.92    1.72
  -1   9   1   18.97    1.95
   1  -9  -1   14.35    1.49
   1  -9   1   14.65    1.64
   1  -9   1   14.63    1.50
   1  -1  -9   16.84    1.99
   1  -1  -9   13.14    1.41
   1  -1   9   16.72    1.22
   1   1  -9   18.19    2.11
   1   9  -1   16.42    1.90
   1   9   1   15.48    1.91
   9  -1  -1   17.81    1.47
   9  -1   1   15.94    1.76
   9   1  -1   14.32    1.29
   9   1  -1   15.54    1.45
   9   1   1   16.21    1.81
  -9  -1  -3    9.10    1.33
   9   1  -3   13.12    1.40
  -3  -9  -1   12.03    1.48
   9  -3  -1   12.80    1.44
   1   9   3   13.13    1.83
  -1  -3  -9   14.75    1.49
  -3  -1   9   13.30    1.36
  -9   3  -1   14.33    1.69
   3   1   9   13.46    1.53
   1  -3   9   13.13    1.25
   1   3  -9   11.45    1.75
  -3   1  -9   14.32    1.78
   9   3   1   11.56    1.66
   3  -9   1   12.63    1.48
   3   9  -1   14.85    1.94
  -1   9  -3   11.38    1.64
  -1  -9   3   11.39    1.42
   9  -1   3   12.18    1.66
   3  -1  -9   12.15    1.68
   1  -9  -3   11.15    1.30
   1   9  -3   12.23    1.63
  -3   9  -1   13.14    1.55
  -9   1  -3   12.05    1.51
  -1  -3   9   14.08    1.33
   3   1  -9   11.46    1.81
   1  -3  -9    9.34    1.21
  -3  -9   1   13.48    1.53
   9  -1  -3   12.14    1.41
   9   3  -1   12.78    1.30
   3  -9  -1   13.80    1.62
   9   1   3   14.70    1.81
   1  -9   3   14.43    1.56
   1  -9   3   12.39    1.41
   3  -1   9   13.54    1.05
   1   3   9   16.71    1.82
  -3   1   9   10.93    1.25
  -1  -9  -3   13.69    1.46
   9  -3   1   13.94    1.61
   3   9   1   15.47    2.07
  -1   9   3   10.62    1.53
  -9   3   1   12.09    1.59
  -3  -1  -9   12.80    1.26
  -9  -3  -1   16.56    1.61
  -1   3  -9   12.88    1.77
   3   3   9   13.58    1.74
   3   9   3   14.09    2.01
   3  -9  -3    9.57    1.19
   9  -3   3    9.26    1.42
   9   3  -3    8.30    1.12
   9   3   3   10.71    1.71
  -3   3  -9    7.62    1.50
  -3   9  -3    9.86    1.58
  -3   9   3    8.83    1.32
  -3  -3   9   11.17    1.27
   3  -9   3   11.88    1.43
   3  -3  -9    7.41    1.15
   3   3  -9   10.58    1.78
  -3  -3  -9   11.84    1.28
  -3  -9   3   10.83    1.30
   9  -3  -3   10.64    1.25
  -9  -3   3   10.75    1.12
  -9   3  -3    9.29    1.46
  -9   3   3    8.64    1.37
  -3  -9  -3    9.23    1.26
   1  -9  -5    8.34    1.22
  -1   9  -5    9.11    1.65
  -1  -5  -9   11.73    1.43
  -5  -1   9    9.06    1.17
  -1  -9   5   10.12    1.32
   1   9   5    9.71    1.57
   5  -1  -9   10.92    1.61
   1  -5   9   10.74    1.23
   1   5  -9   10.03    1.71
  -9  -1  -5    8.96    1.29
  -9  -5   1   10.37    1.20
  -9   5  -1    9.12    1.44
  -1   5   9   10.43    1.42
   5   1   9    7.27    1.20
   9  -1   5   10.01    1.49
   9   1  -5    8.65    1.23
  -5  -9  -1    9.14    1.32
   9   5   1    8.75    1.70
  -5   1  -9    7.47    1.46
   5  -9   1   11.67    1.55
   9  -5  -1    7.94    1.24
  -5   9  -1   10.96    1.51
  -1   5  -9   10.15    1.76
   1  -5  -9    9.06    1.30
  -1  -9  -5   11.97    1.38
   5   9   1   12.01    2.09
  -9   1  -5    7.30    1.32
  -9   5   1    8.10    1.38
  -1  -5   9    9.10    1.20
   9   1   5    7.04    1.33
  -5   1   9   10.41    1.28
   9  -5   1   10.58    1.44
   9   5  -1   10.18    1.15
   5  -9  -1    9.48    1.42
  -1   9   5    9.56    1.51
   1   9  -5   10.65    1.75
   1   5   9   10.15    1.53
  -9  -5  -1    9.27    1.18
  -9  -1   5    9.10    1.07
   5   1  -9   14.10    2.00
   9  -1  -5   10.10    1.36
  -5  -9   1    9.29    1.27
   5  -1   9    9.45    1.20
  -9  -5   3    8.91    1.12
  -3  -5  -9   10.55    1.33
   5   3   9    7.87    1.44
   5  -9   3    9.87    1.41
   9   5   3    9.93    1.90
   3   5  -9   10.37    1.80
  -5   3  -9   10.07    1.71
   9  -5  -3    8.67    1.25
  -9   5  -3    6.55    1.28
  -5  -3   9    8.18    1.19
   3   9   5   10.39    1.83
   9  -3   5    7.84    1.35
   9   3  -5    9.49    1.33
  -3   9  -5    9.97    1.73
   3  -9  -5    9.52    1.33
  -5  -9  -3    9.30    1.23
  -3  -9   5    9.41    1.33
   5  -9  -3   11.21    1.56
   3   5   9   15.50    1.93
   9  -5   3    8.17    1.37
   9   5  -3    8.17    1.15
   5   9   3    9.66    1.85
  -5  -9   3    7.76    1.16
  -5   9  -3    9.78    1.57
   5   3  -9    7.60    1.54
  -3   5  -9    5.31    1.51
  -9  -3   5   10.78    1.23
  -9   3  -5    9.95    1.52
   3  -5  -9    9.76    1.37
   9  -3  -5    8.65    1.31
  -9   5   3    9.45    1.48
   3   9  -5    7.69    1.49
  -3  -5   9    8.66    1.23
  -5   3   9    7.85    1.17
  -3  -9  -5    9.43    1.24
  -5  -3  -9    8.93    1.13
   9   3   5    9.83    1.69
  -3   9   5   11.12    1.54
   5   9  -5    7.70    1.45
   5   9   5    5.98    1.63
  -5   5  -9    5.60    1.53
  -9   5   5    4.40    1.11
  -5  -9  -5    6.18    1.05
  -5   9  -5    3.62    1.24
  -5   9   5    4.17    1.04
   5  -9   5    5.60    1.17
   5  -5  -9    6.23    1.21
   5   5  -9    4.76    1.44
   5   5   9    6.41    1.46
  -5  -9   5    4.73    1.02
  -5  -5  -9    5.22    0.97
  -5  -5   9    5.84    1.07
  -9  -5   5    7.63    1.13
  -9   5  -5    4.68    1.27
   9   5   5    4.84    1.49
   9  -5   5    4.71    1.14
   9   5  -5    6.49    1.19
  -7   1  -9    8.05    1.58
   7   1   9    5.77    1.11
  -1  -7  -9    4.91    1.08
   1  -9  -7    6.66    1.23
  -9   7  -1    6.29    1.29
  -1   7   9    5.92    1.25
  -1  -9   7    7.06    1.26
   1   7  -9    5.70    1.51
  -7  -1   9    7.28    1.14
   9  -7  -1    6.41    1.22
   7  -9   1    6.18    1.28
   7  -1  -9    7.85    1.45
   9  -1   7    5.63    1.17
   9   1  -7    7.02    1.29
  -7  -9  -1    6.20    1.12
   1   9   7    8.59    1.55
  -9  -7   1    7.12    1.09
  -1   9  -7    5.14    1.50
   9   1   7    8.10    1.37
   1   7   9    9.93    1.58
  -1   7  -9    6.80    1.66
  -7   1   9    6.31    1.03
  -1  -9  -7    6.55    1.18
   1  -7  -9    5.31    1.14
   1   9  -7    5.92    1.51
  -1   9   7    4.60    1.19
  -1  -7   9    7.12    1.15
  -9   7   1    5.40    1.21
   9  -1  -7    5.34    1.14
   7  -1   9    7.58    1.20
   7   1  -9    6.36    1.47
  -7   9  -1    5.52    1.21
   7  -9  -1    4.09    1.06
  -9  -1   7    6.19    1.00
  -9   1  -7    5.73    1.26
   9  -7   1    7.09    1.31
  -7  -9   1    5.83    1.11
  -9  -7  -1    6.14    1.12
   7  -3  -9    3.76    1.00
  -7   3  -9    5.63    1.45
   7   3   9    7.46    1.41
   9   7   3    7.42    1.93
  -7  -3   9    5.26    1.03
  -3   7   9    5.28    1.15
  -3   9  -7    4.80    1.53
   3  -9  -7    5.16    1.16
  -9   7  -3    4.44    1.20
   3   9   7    5.85    1.46
   9  -3   7    5.79    1.19
  -3  -9   7    5.74    1.11
  -7  -9  -3    6.04    1.07
   9  -7  -3    3.42    0.96
  -9  -7   3    4.86    0.98
   9   3  -7    6.77    1.36
  -3  -7  -9    7.05    1.21
   3   7  -9    4.94    1.56
   7  -9   3    7.52    1.36
  -9  -3   7    5.15    0.96
   3  -7  -9    7.02    1.32
  -3   9   7    5.08    1.27
   7   3  -9    6.21    1.58
   7  -9  -3    4.33    1.15
  -7   3   9    7.37    1.15
   9  -7   3    5.59    1.26
  -3  -9  -7    5.12    1.04
   3   7   9    3.26    1.18
   3   9  -7    6.39    1.59
   9   3   7    6.32    1.40
   7   9   3    5.67    1.79
  -3   7  -9    6.17    1.72
  -7  -9   3    5.37    1.05
  -7   9  -3    5.67    1.34
   7  -3   9    4.75    0.97
  -3  -7   9    4.75    1.01
  -9  -7  -3    4.94    0.96
   9  -3  -7    4.45    1.10
  -9   3  -7    6.23    1.38
  -9   7   3    6.71    1.30
   7   5   9    7.09    1.52
   9   5  -7    3.28    1.20
   9  -7  -5    4.45    1.10
   9  -5   7    7.08    1.32
  -9  -7   5    5.52    1.06
  -5  -7  -9    4.85    1.02
  -7  -5   9    5.04    1.03
  -7   5  -9    5.80    1.64
   9   7   5    4.12    1.54
   5   7  -9    6.12    1.62
  -5   9  -7    3.22    1.42
   7  -9   5    4.18    1.15
  -9   7  -5    7.41    1.53
   5   9   7    3.94    1.46
  -9   5   7    5.56    1.23
  -7  -9  -5    4.75    0.94
  -5  -9   7    4.19    1.06
  -7   9  -5    4.00    1.37
   7   9   5    7.31    1.89
   5  -7  -9    3.46    1.14
  -5   7  -9    7.98    1.96
  -5  -9  -7    4.54    0.98
  -7  -9   5    5.06    1.08
   5   7   9    6.37    1.55
  -5   9   7    6.58    1.37
   5   9  -7    7.31    1.65
  -9   5  -7    4.50    1.38
   7   5  -9    4.56    1.52
   9   5   7    6.78    1.64
  -9  -5   7    5.78    1.08
   9  -7   5    4.40    1.24
   9   7  -5    9.17    1.53
  -5  -7   9    7.61    1.33
  -7  -7  -9    4.33    1.05
  -7   9   7    2.16    1.20
   7   9  -7    3.73    1.44
  -9  -9  -1    5.20    1.07
  -9  -9   1    3.20    0.98
  -9  -1   9    3.96    1.00
  -9   9  -1    4.19    1.22
  -9   9   1    3.88    1.17
  -1  -9  -9    3.85    1.08
  -1  -9   9    3.19    1.08
  -1   9  -9    2.86    1.60
  -1   9   9    4.75    1.34
   1  -9  -9    5.69    1.28
   1   9  -9    4.39    1.66
   1   9   9    4.65    1.34
   9  -9  -1    2.67    1.06
   9  -9   1    4.52    1.27
   9  -1  -9    6.10    1.38
   9  -1   9    4.80    1.09
   9   1  -9    6.12    1.51
   9   1   9    5.79    1.24
  -9  -9  -3    4.05    1.05
  -9  -3   9    6.59    1.22
  -9   3  -9    5.41    1.56
  -9   9  -3    3.41    1.29
  -3  -9   9    4.10    1.16
  -3   9   9    3.77    1.27
   3  -9  -9    4.45    1.28
   9  -3  -9    5.37    1.37
   9  -3   9    4.95    1.12
   9   9   3    3.21    1.77
 -10   0   0    5.98    1.17
   0 -10   0    7.00    1.17
   0   0 -10    8.28    1.50
   0   0  10    7.83    1.03
   0  10   0    9.76    1.56
  10   0   0    6.88    1.19
 -10   0  -2  127.97    6.28
  -2 -10   0  131.15    6.00
   0  -2 -10  132.51    5.78
   0  -2  10  130.07    5.49
   0   2 -10  133.02    6.62
   2 -10   0  136.56    6.51
   2  10   0  131.27    6.91
  10   0  -2  129.49    6.08
  10   0   2  136.26    6.69
   0 -10  -2  132.09    5.83
   0 -10   2  139.09    5.98
   0  10  -2  129.80    6.57
   0  10   2  124.52    6.68
   2   0 -10  138.66    6.82
  10  -2   0  129.17    6.35
  10   2   0  139.74    6.49
  -2   0 -10  131.14    5.57
 -10  -2   0  141.37    6.25
 -10   2   0  132.08    6.41
  -2   0 -10  137.17    6.44
  -2   0  10  129.51    5.58
   2 -10   2    6.16    1.15
   2 -10  -2    5.83    0.97
 -10  -2  -2    6.34    1.14
 -10   2  -2    6.79    1.23
 -10   2   2    8.88    1.43
  -2 -10  -2    5.34    1.08
  -2 -10   2    6.76    1.16
  -2  -2 -10    5.84    0.97
  -2  -2  10    5.70    0.89
  -2   2 -10    6.21    1.35
  -2  10   2    6.75    1.21
  10   2  -2    6.06    1.00
  10   2   2    6.02    1.35
   2  -2 -10    6.63    1.07
   2  -2  10    5.78    0.86
   2   2 -10    3.88    1.30
   2  10   2    6.84    1.55
  10  -2  -2    7.47    1.13
  10  -2   2    5.91    1.23
 -10   0  -4    4.92    1.16
  -4 -10   0    6.67    1.18
   0  10  -4    7.88    1.52
   0  10   4    5.80    1.31
   4   0 -10    8.41    1.63
  10  -4   0    7.26    1.23
  10   4   0    7.72    1.06
   0  -4 -10    6.98    1.20
   4  10   0    6.56    1.61
  10   0  -4    6.72    1.13
  10   0   4    7.47    1.37
   0 -10   4    8.32    1.30
   0  -4  10    5.31    0.91
   0   4 -10    7.50    1.55
   4 -10   0    7.15    1.27
  -4   0  10    6.46    1.02
   0 -10  -4    6.98    1.08
 -10   4   0    5.08    1.19
  -4   2 -10  104.12    5.55
  -4  -2  10  106.09    4.62
  10  -4  -2   95.61    5.03
  -2 -10   4  101.61    4.81
  -2  10  -4   93.56    5.41
   2 -10  -4   87.76    4.54
 -10   4  -2   96.33    5.28
  -2  -4 -10  107.94    4.79
  -4 -10  -2   95.67    4.78
   4   2  10  113.97    5.32
  10  -2   4   92.58    5.35
  10   2  -4   98.91    4.90
   2  10   4  101.34    5.82
   4 -10   2   96.18    5.19
   2   4 -10   93.04    5.59
  10   4   2  107.67    5.74
  -2   4 -10   90.08    5.51
   2  -4 -10   96.20    4.78
  -2  10   4   96.96    5.35
  -2 -10  -4   99.16    4.68
 -10   2  -4   97.51    5.20
  -4  -2 -10  105.37    4.54
  -4   2  10   99.36    4.60
  10   4  -2   96.82    4.71
  10   2   4   97.56    5.56
  10  -4   2   98.91    5.33
  -4 -10   2   99.27    4.84
 -10   4   2  102.28    5.31
   2   4  10  113.31    5.49
   4 -10  -2  102.48    5.35
   4   2 -10  115.38    5.99
   4  10   2  100.27    5.92
  10  -2  -4   98.74    5.06
  -2  -4  10   95.86    4.56
 -10   4   4    7.13    1.43
 -10   4  -4    5.12    1.27
   4  -4 -10    7.24    1.26
   4   4 -10    7.19    1.63
 -10  -4   4    5.62    0.96
   4  10   4    5.83    1.65
  10  -4   4    5.84    1.29
  10   4  -4    6.13    1.08
  10   4   4    5.13    1.40
  -4  10  -4    5.68    1.39
  -4   4 -10    8.97    1.83
   4 -10   4    7.54    1.26
  -4  -4  10    6.31    1.08
  -4  -4 -10    6.69    1.12
  -4 -10   4    6.17    1.14
  -4 -10  -4    4.74    0.98
  -4  10   4    5.07    1.19
   4   4  10    6.32    1.41
   0   6 -10   68.87    4.77
 -10   6   0   71.57    4.30
   0  -6 -10   73.79    4.05
   0  10  -6   71.23    4.63
   0 -10  -6   74.43    3.91
 -10   0  -6   70.82    4.07
  10   0   6   77.07    4.43
   0  10   6   68.04    4.54
   6   0 -10   84.45    4.83
   6   0  10   76.95    4.00
  10  -6   0   66.20    4.17
   0  -6  10   74.39    3.72
   0   6  10   83.17    4.47
  -6   0  10   74.30    3.77
  10   0  -6   75.41    4.16
   6 -10   0   75.91    4.39
  -6 -10   0   75.43    4.00
  -6 -10  -2    7.84    1.34
   6  -2 -10    6.24    1.36
  10   2  -6    9.15    1.40
   6 -10   2    4.82    1.20
   2  10   6    5.35    1.48
 -10  -6   2    5.14    0.98
  10   6   2    7.87    1.81
   2 -10  -6    5.95    1.20
  10  -2   6    5.00    1.21
  -2  10  -6    4.93    1.46
  -2 -10   6    5.50    1.15
  -2  -6 -10    6.19    1.14
 -10   6  -2    6.99    1.38
   6   2  10    5.92    1.25
  -6  -2  10    5.91    1.09
   2   6 -10    4.96    1.42
  10  -6  -2    5.66    1.15
  -6   2 -10    8.10    1.73
   6 -10  -2    6.15    1.30
   6  10   2    9.34    2.04
  -2 -10  -6    6.95    1.13
  10   2   6    9.11    1.60
  -6  10  -2    5.97    1.38
  -2  10   6    8.39    1.54
  10  -2  -6    6.21    1.21
  -6   2  10    7.04    1.11
  -2   6 -10    3.00    1.34
   2   6  10    6.67    1.43
  -2  -6  10    6.27    1.09
 -10   6   2    5.33    1.25
   2  -6 -10    8.58    1.43
  -6 -10   2    5.87    1.13
  10  -6   2    3.59    1.09
 -10   2  -6    5.51    1.29
   6   2 -10    6.82    1.74
   2  10  -6    4.20    1.36
  10  -6  -4   58.03    3.63
  -4  10  -6   59.58    4.34
  10  -4   6   59.59    3.87
  10   4  -6   58.40    3.63
  -4  -6 -10   64.25    3.42
   6   4  10   58.46    3.87
   4   6 -10   60.15    4.31
   4  10   6   55.31    4.29
   6 -10   4   55.98    3.73
  10   6   4   62.54    4.58
  -6   4 -10   68.73    4.46
 -10  -6   4   58.69    3.20
 -10   6  -4   54.51    3.76
  -6  -4  10   57.54    3.30
 -10   4   6   60.13    3.73
  -6 -10  -4   57.53    3.30
  -4 -10   6   61.80    3.49
   4   6  10   59.43    3.98
  -4  -6  10   53.56    3.24
 -10  -4   6   54.16    3.13
 -10   4  -6   58.85    3.90
   6   4 -10   58.15    4.31
  -4 -10  -6   55.07    3.20
  10   4   6   67.92    4.32
  10  -6   4   60.68    3.94
  10   6  -4   61.55    3.47
  -4   6 -10   57.68    4.45
  -6 -10   4   58.67    3.40
   6  10   4   58.54    4.58
  -4  10   6   63.97    3.96
  -6   4  10   58.74    3.25
   4  -6 -10   58.14    3.62
 -10   6   4   57.11    3.72
  -6  10   6    4.99    1.44
  -6  -6 -10    5.70    1.12
  10   6  -6    6.54    1.42
 -10  -6   6    4.36    1.06
   6  -6 -10    6.17    1.38
  10  -8   0    4.36    1.22
   8   0 -10    4.95    1.52
   8   0  10    8.49    1.35
 -10   8   0    2.77    1.13
   0  10  -8    3.49    1.54
   0  10   8    5.90    1.57
 -10  -8   0    6.09    1.23
   0   8  10    6.18    1.46
  -8   0  10    8.62    1.35
   0 -10  -8    5.05    1.14
  10   0  -8    6.79    1.45
  10   0   8    5.79    1.26
  -8 -10   0    5.99    1.23
   0  -8 -10    6.67    1.34
   0   8 -10    7.14    1.88
   8 -10   0    6.49    1.43
  -2 -10   8   47.26    3.11
   2 -10  -8   46.88    3.18
  -8  -2  10   41.15    2.82
  -8 -10  -2   51.08    3.08
 -10  -8   2   47.59    2.98
   8   2  10   53.60    3.37
  10  -8  -2   45.30    3.36
   8  -2 -10   46.38    3.37
  -2  10  -8   43.56    3.87
  10  -2   8   52.76    3.30
 -10   8  -2   40.55    3.28
  -8  10  -2   45.10    3.33
 -10   8   2   43.03    3.30
   8  -2  10   45.87    3.00
  -8   2  10   46.52    2.85
 -10   2  -8   50.15    3.52
  10  -2  -8   48.21    3.32
  -2  10   8   55.96    3.75
 -10  -2   8   44.27    2.76
   2  10  -8   50.47    3.91
   2   8  10   47.22    3.54
   2  -8 -10   51.02    3.40
  -2  -8  10   40.94    2.89
  10  -4  -8    5.87    1.38
 -11  -1  -1    3.14    0.95
 -11  -1   1    3.96    1.03
 -11   1  -1    3.90    1.07
 -11   1   1    2.05    0.90
  -1 -11  -1    4.43    1.03
  -1 -11   1    4.65    1.13
  -1  -1 -11    2.97    0.82
  -1  -1  11    4.15    0.81
  -1   1 -11    4.51    1.24
  -1   1  11    3.69    0.78
  -1  11  -1    4.26    1.22
  -1  11   1    3.71    1.14
   1 -11  -1    3.22    0.91
   1  -1  11    3.00    0.68
   1   1 -11    4.45    1.35
   1  11  -1    4.39    1.40
   1  11   1    4.45    1.35
  11  -1  -1    4.04    1.01
  11  -1   1    5.50    1.20
  11   1   1    4.32    1.11
 -11  -1  -3    2.97    1.02
  -1 -11   3    3.23    1.06
 -11   1   3    4.56    1.24
  -3 -11  -1    3.29    0.94
   1  11   3    5.29    1.52
  -3  11   1    2.39    0.94
  -1  -3 -11    4.20    0.97
   1 -11  -3    3.29    0.85
  -3  -1  11    2.86    0.77
  11   3   1    1.74    0.90
   1  -3  11    3.71    0.76
   1   3 -11    2.97    1.28
 -11   3  -1    1.82    0.96
   3 -11   1    2.23    0.91
  11  -3  -1    2.99    0.93
  11  -1   3    6.04    1.46
  11   1  -3    3.06    0.86
   3  11   1    3.79    1.49
  11   3  -1    4.62    0.93
   1  -3 -11    4.54    1.06
  -1  -3  11    4.55    0.87
  -3 -11   1    3.56    0.97
   3   1 -11    3.92    1.37
  11   1   3    7.09    1.42
  11  -3   1    3.60    1.05
  -1  11   3    2.42    1.09
  -3   1  11    4.76    0.95
  -1 -11  -3    3.38    0.91
 -11   1  -3    4.54    1.14
  -3  -1 -11    2.96    0.81
  -1   3 -11    3.72    1.22
   3 -11  -1    3.63    1.08
 -11   3   1    3.13    1.00
 -11  -3  -1    5.61    1.17
 -11   3  -3    3.55    1.15
  -3  -3 -11    4.42    0.98
   3  -3 -11    5.40    1.18
  -3 -11  -3    3.24    0.92
  -3 -11   3    2.71    0.91
  -3   3 -11    4.55    1.37
  -3  11   3    2.05    0.96
 -11   3   3    3.46    1.17
  -3  -3  11    2.44    0.72
   3   3 -11    6.77    1.64
   3  11   3    4.59    1.66
  11  -3   3    5.79    1.34
  11   3  -3    3.01    0.86
  11   3   3    1.94    1.05
   3 -11   3    5.35    1.19
   1   5 -11    2.72    1.19
  11  -5  -1    3.94    1.05
   5  -1 -11    4.86    1.46
  11  -1   5    2.61    1.04
  11   1  -5    4.85    1.06
  -5  -1  11    5.05    1.00
   1 -11  -5    2.81    0.91
  -1 -11   5    3.87    1.12
   5 -11   1    4.98    1.22
  -1  -5 -11    4.46    1.07
  -5 -11  -1    4.98    1.14
   1  11   5    2.61    1.29
 -11   5  -1    2.57    1.06
 -11   1  -5    4.66    1.21
  -1 -11  -5    3.76    0.98
   5 -11  -1    5.53    1.30
  -1  -5  11    3.61    0.86
  -5   1  11    3.90    0.90
  -5 -11   1    3.45    1.01
  11  -1  -5    4.06    1.09
   5   1 -11    3.29    1.47
  -1   5 -11    2.66    1.30
  11  -5   1    3.58    1.07
 -11   5   1    4.38    1.24
  11   1   5    3.68    1.24
   1  -5 -11    4.75    1.13
  -1  11   5    3.30    1.26
  -3  -5 -11    3.90    1.06
  11  -5  -3    3.49    1.07
  11  -3   5    3.10    1.12
  11   3  -5    3.65    1.02
  -5  -3  11    2.68    0.85
  -3 -11   5    3.43    1.00
   5 -11   3    4.23    1.14
 -11   3   5    2.07    0.96
   3   5 -11    4.18    1.48
  -3  11  -5    2.95    1.33
  -5 -11  -3    2.38    0.84
   3  11   5    1.84    1.45
 -11   5  -3    1.29    0.95
   5   3  11    3.93    1.14
  11   5   3    3.54    1.39
  -5   3 -11    1.57    1.26
   5 -11  -3    2.06    0.98
  -3  11   5    2.62    1.12
   3   5  11    2.00    1.09
 -11   3  -5    3.34    1.13
 -11   5   3    4.33    1.24
  11   3   5    4.61    1.48
  -5 -11   3    4.43    1.11
  -5   3  11    5.33    1.05
  -3 -11  -5    2.74    0.88
  -3   5 -11   -0.54    1.10
  -3  -5  11    5.09    1.01
  11   5  -3    3.42    0.92
  11  -5   3    2.33    0.98
   5   3 -11    3.12    1.46
   3  -5 -11    4.16    1.15
   5  11   3    3.49    1.56
 -11   5   5    4.42    1.36
  11   5  -5    3.35    1.06
   5   5  11    4.02    1.37
  -5  11  -5    3.97    1.45
  -5  -5 -11    3.77    1.08
  -5   5 -11    3.04    1.51
   7  -1 -11    5.04    1.66
   7   1  11    3.17    0.99
   1 -11  -7    4.04    1.09
  -1  11  -7    4.84    1.63
  -7   1  11    4.07    1.03
 -11   7   1    2.28    1.14
   1   7  11    3.51    1.27
  -1  -7  11    2.76    0.90
   1  11  -7    4.19    1.51
   7   1 -11    2.79    1.58
  -7   3 -11    3.88    1.53
  11   7   3    3.44    1.62
   7  11   3    3.40    1.84
 -12   0   0   67.14    4.05
   0 -12   0   63.78    3.75
   0   0  12   64.58    3.34
   0  12   0   67.39    4.48
  12   0   0   66.11    4.09
 -12   0  -2    5.77    1.31
 -12   0   2    4.93    1.26
  -2 -12   0    5.39    1.27
  -2  12   0    4.48    1.34
   0  -2 -12    4.91    1.11
   0  -2  12    6.67    1.05
   0   2 -12    4.59    1.39
   2  12   0    4.56    1.67
  12   0   2    6.56    1.41
   2   0  12    4.95    0.92
  12  -2   0    3.78    1.17
  -2   0  12    5.04    0.95
   0 -12  -2    2.08    0.87
   0  12   2    6.41    1.67
 -12   2   0    5.23    1.37
 -12  -2   0    5.29    1.25
  -2 -12   2   54.76    3.62
  12   2   2   59.66    4.08
   2  12   2   65.17    4.70
  -2  12  -2   61.88    4.04
  -2  12   2   62.20    4.12
   2   2 -12   56.43    4.13
  -2   2 -12   58.68    3.97
  -2   2  12   56.64    3.26
 -12  -2  -2   62.38    3.77
 -12  -2   2   62.01    3.75
 -12   2  -2   58.19    3.78
 -12   2   2   56.73    3.93
  -2 -12  -2   69.23    3.75
  -2  -2  12   56.65    3.18
  -2  -2 -12   53.95    3.28
  12   0   4   55.56    3.87
 -12   0  -4   50.75    3.44
  -4 -12   0   54.07    3.43
   0  -4 -12   46.26    3.18
   0  -4  12   48.15    2.84
   0   4 -12   43.49    3.66
   4 -12   0   48.24    3.60
  12   0  -4   45.48    3.18
   0 -12  -4   48.93    3.06
   0  12   4   54.75    4.05
   4   0 -12   62.03    4.33
  12  -4   0   51.25    3.56
 -12   4   0   53.56    3.69
  -4   0  12   57.25    3.11
  -4  -2  12    6.01    1.10
  12   4   2    6.36    1.57
 -12   4  -2    4.06    1.28
   2   4 -12    1.97    1.25
   4 -12   2    2.40    1.14
   2  12   4    6.63    1.95
  12  -2   4    6.23    1.54
  12   2  -4    4.28    1.09
 -12   2   4    8.69    1.67
  -4  12   2    5.91    1.41
  -2  -4 -12    6.18    1.26
  12  -4  -2    7.39    1.41
  -2 -12   4    6.46    1.38
  -4 -12  -2    4.04    1.13
  12   2   4    6.18    1.52
   2  -4 -12    3.99    1.15
 -12   4   2    6.40    1.50
  -2  -4  12    4.44    0.98
  -4   2  12    4.87    1.11
  -2 -12  -4    6.23    1.25
  -2   4 -12    5.47    1.66
  -2  12   4    4.23    1.36
   4  12   2    7.21    2.08
   4   2 -12    9.46    2.06
 -12   2  -4    3.65    1.27
  12  -4   2    4.69    1.34
  12   4  -2    7.76    1.30
  -4 -12   2    2.24    0.99
  -4  -4 -12   44.90    2.93
   6   0 -12    5.07    1.91
 -13  -1  -1    6.31    1.48
 -13  -1   1    4.61    1.31
  -1 -13  -1    4.50    1.21
  -1 -13   1    6.39    1.53
  -1  13  -1    5.03    1.66
  -1  13   1    3.54    1.52
   1  -1  13    4.20    0.90
   1   1  13    3.69    0.92
   1  13   1    1.85    1.58
  13  -1   1    6.00    1.46
  13   1   1    6.08    1.47
 -13  -3   1    5.91    1.50
   0   0   0    0.00    0.00
;
_shelx_hkl_checksum              75493
loop_
_space_group_symop_operation_xyz
'x, y, z'
'-x, -y, z'
'-x, y, -z'
'x, -y, -z'
'z, x, y'
'z, -x, -y'
'-z, -x, y'
'-z, x, -y'
'y, z, x'
'-y, z, -x'
'y, -z, -x'
'-y, -z, x'
'y, x, -z'
'-y, -x, -z'
'y, -x, z'
'-y, x, z'
'x, z, -y'
'-x, z, y'
'-x, -z, -y'
'x, -z, y'
'z, y, -x'
'z, -y, x'
'-z, y, x'
'-z, -y, -x'
'x, y+1/2, z+1/2'
'-x, -y+1/2, z+1/2'
'-x, y+1/2, -z+1/2'
'x, -y+1/2, -z+1/2'
'z, x+1/2, y+1/2'
'z, -x+1/2, -y+1/2'
'-z, -x+1/2, y+1/2'
'-z, x+1/2, -y+1/2'
'y, z+1/2, x+1/2'
'-y, z+1/2, -x+1/2'
'y, -z+1/2, -x+1/2'
'-y, -z+1/2, x+1/2'
'y, x+1/2, -z+1/2'
'-y, -x+1/2, -z+1/2'
'y, -x+1/2, z+1/2'
'-y, x+1/2, z+1/2'
'x, z+1/2, -y+1/2'
'-x, z+1/2, y+1/2'
'-x, -z+1/2, -y+1/2'
'x, -z+1/2, y+1/2'
'z, y+1/2, -x+1/2'
'z, -y+1/2, x+1/2'
'-z, y+1/2, x+1/2'
'-z, -y+1/2, -x+1/2'
'x+1/2, y, z+1/2'
'-x+1/2, -y, z+1/2'
'-x+1/2, y, -z+1/2'
'x+1/2, -y, -z+1/2'
'z+1/2, x, y+1/2'
'z+1/2, -x, -y+1/2'
'-z+1/2, -x, y+1/2'
'-z+1/2, x, -y+1/2'
'y+1/2, z, x+1/2'
'-y+1/2, z, -x+1/2'
'y+1/2, -z, -x+1/2'
'-y+1/2, -z, x+1/2'
'y+1/2, x, -z+1/2'
'-y+1/2, -x, -z+1/2'
'y+1/2, -x, z+1/2'
'-y+1/2, x, z+1/2'
'x+1/2, z, -y+1/2'
'-x+1/2, z, y+1/2'
'-x+1/2, -z, -y+1/2'
'x+1/2, -z, y+1/2'
'z+1/2, y, -x+1/2'
'z+1/2, -y, x+1/2'
'-z+1/2, y, x+1/2'
'-z+1/2, -y, -x+1/2'
'x+1/2, y+1/2, z'
'-x+1/2, -y+1/2, z'
'-x+1/2, y+1/2, -z'
'x+1/2, -y+1/2, -z'
'z+1/2, x+1/2, y'
'z+1/2, -x+1/2, -y'
'-z+1/2, -x+1/2, y'
'-z+1/2, x+1/2, -y'
'y+1/2, z+1/2, x'
'-y+1/2, z+1/2, -x'
'y+1/2, -z+1/2, -x'
'-y+1/2, -z+1/2, x'
'y+1/2, x+1/2, -z'
'-y+1/2, -x+1/2, -z'
'y+1/2, -x+1/2, z'
'-y+1/2, x+1/2, z'
'x+1/2, z+1/2, -y'
'-x+1/2, z+1/2, y'
'-x+1/2, -z+1/2, -y'
'x+1/2, -z+1/2, y'
'z+1/2, y+1/2, -x'
'z+1/2, -y+1/2, x'
'-z+1/2, y+1/2, x'
'-z+1/2, -y+1/2, -x'
'-x, -y, -z'
'x, y, -z'
'x, -y, z'
'-x, y, z'
'-z, -x, -y'
'-z, x, y'
'z, x, -y'
'z, -x, y'
'-y, -z, -x'
'y, -z, x'
'-y, z, x'
'y, z, -x'
'-y, -x, z'
'y, x, z'
'-y, x, -z'
'y, -x, -z'
'-x, -z, y'
'x, -z, -y'
'x, z, y'
'-x, z, -y'
'-z, -y, x'
'-z, y, -x'
'z, -y, -x'
'z, y, x'
'-x, -y+1/2, -z+1/2'
'x, y+1/2, -z+1/2'
'x, -y+1/2, z+1/2'
'-x, y+1/2, z+1/2'
'-z, -x+1/2, -y+1/2'
'-z, x+1/2, y+1/2'
'z, x+1/2, -y+1/2'
'z, -x+1/2, y+1/2'
'-y, -z+1/2, -x+1/2'
'y, -z+1/2, x+1/2'
'-y, z+1/2, x+1/2'
'y, z+1/2, -x+1/2'
'-y, -x+1/2, z+1/2'
'y, x+1/2, z+1/2'
'-y, x+1/2, -z+1/2'
'y, -x+1/2, -z+1/2'
'-x, -z+1/2, y+1/2'
'x, -z+1/2, -y+1/2'
'x, z+1/2, y+1/2'
'-x, z+1/2, -y+1/2'
'-z, -y+1/2, x+1/2'
'-z, y+1/2, -x+1/2'
'z, -y+1/2, -x+1/2'
'z, y+1/2, x+1/2'
'-x+1/2, -y, -z+1/2'
'x+1/2, y, -z+1/2'
'x+1/2, -y, z+1/2'
'-x+1/2, y, z+1/2'
'-z+1/2, -x, -y+1/2'
'-z+1/2, x, y+1/2'
'z+1/2, x, -y+1/2'
'z+1/2, -x, y+1/2'
'-y+1/2, -z, -x+1/2'
'y+1/2, -z, x+1/2'
'-y+1/2, z, x+1/2'
'y+1/2, z, -x+1/2'
'-y+1/2, -x, z+1/2'
'y+1/2, x, z+1/2'
'-y+1/2, x, -z+1/2'
'y+1/2, -x, -z+1/2'
'-x+1/2, -z, y+1/2'
'x+1/2, -z, -y+1/2'
'x+1/2, z, y+1/2'
'-x+1/2, z, -y+1/2'
'-z+1/2, -y, x+1/2'
'-z+1/2, y, -x+1/2'
'z+1/2, -y, -x+1/2'
'z+1/2, y, x+1/2'
'-x+1/2, -y+1/2, -z'
'x+1/2, y+1/2, -z'
'x+1/2, -y+1/2, z'
'-x+1/2, y+1/2, z'
'-z+1/2, -x+1/2, -y'
'-z+1/2, x+1/2, y'
'z+1/2, x+1/2, -y'
'z+1/2, -x+1/2, y'
'-y+1/2, -z+1/2, -x'
'y+1/2, -z+1/2, x'
'-y+1/2, z+1/2, x'
'y+1/2, z+1/2, -x'
'-y+1/2, -x+1/2, z'
'y+1/2, x+1/2, z'
'-y+1/2, x+1/2, -z'
'y+1/2, -x+1/2, -z'
'-x+1/2, -z+1/2, y'
'x+1/2, -z+1/2, -y'
'x+1/2, z+1/2, y'
'-x+1/2, z+1/2, -y'
'-z+1/2, -y+1/2, x'
'-z+1/2, y+1/2, -x'
'z+1/2, -y+1/2, -x'
'z+1/2, y+1/2, x'
loop_
_atom_site_label
_atom_site_type_symbol
_atom_site_fract_x
_atom_site_fract_y
_atom_site_fract_z
_atom_site_U_iso_or_equiv
_atom_site_adp_type
_atom_site_occupancy
_atom_site_site_symmetry_order
_atom_site_calc_flag
_atom_site_refinement_flags_posn
_atom_site_refinement_flags_adp
_atom_site_refinement_flags_occupancy
_atom_site_disorder_assembly
_atom_site_disorder_group
Rb1 Rb 0.0000 0.0000 0.5000 0.0225(10) Uani 1 48 d S T P . .
Dy2 Dy 0.0000 0.0000 0.0000 0.0156(8) Uani 1 48 d S T P . .
Cs1 Cs 0.2500 0.2500 0.2500 0.0398(9) Uani 1 24 d S T P . .
F1 F 0.2238(17) 0.0000 0.0000 0.091(8) Uani 1 8 d S T P . .
loop_
_atom_site_aniso_label
_atom_site_aniso_U_11
_atom_site_aniso_U_22
_atom_site_aniso_U_33
_atom_site_aniso_U_23
_atom_site_aniso_U_13
_atom_site_aniso_U_12
Rb1 0.0225(10) 0.0225(10) 0.0225(10) 0.000 0.000 0.000
Dy2 0.0156(8) 0.0156(8) 0.0156(8) 0.000 0.000 0.000
Cs1 0.0398(9) 0.0398(9) 0.0398(9) 0.000 0.000 0.000
F1 0.025(8) 0.124(12) 0.124(12) 0.000 0.000 0.000
loop_
_atom_type_symbol
_atom_type_description
_atom_type_scat_dispersion_real
_atom_type_scat_dispersion_imag
_atom_type_scat_source
F F 0.0171 0.0103 'International Tables Vol C Tables 4.2.6.8 and 6.1.1.4'
Rb Rb -0.9393 2.9676 'International Tables Vol C Tables 4.2.6.8 and 6.1.1.4'
Cs Cs -0.3680 2.1192 'International Tables Vol C Tables 4.2.6.8 and 6.1.1.4'
Dy Dy -0.1892 4.4098 'International Tables Vol C Tables 4.2.6.8 and 6.1.1.4'
loop_
_geom_angle_atom_site_label_1
_geom_angle_atom_site_label_2
_geom_angle_atom_site_label_3
_geom_angle
_geom_angle_site_symmetry_1
_geom_angle_site_symmetry_3
F1 Rb1 F1 180.0 105_556 9
F1 Rb1 F1 90.000(1) 105_556 125
F1 Rb1 F1 90.0 9 125
F1 Rb1 F1 90.0 105_556 29_545
F1 Rb1 F1 90.000(1) 9 29_545
F1 Rb1 F1 180.0 125 29_545
F1 Rb1 F1 90.000(1) 105_556 145
F1 Rb1 F1 90.0 9 145
F1 Rb1 F1 90.000(2) 125 145
F1 Rb1 F1 90.0 29_545 145
F1 Rb1 F1 90.0 105_556 49_455
F1 Rb1 F1 90.000(1) 9 49_455
F1 Rb1 F1 90.000(1) 125 49_455
F1 Rb1 F1 90.000(2) 29_545 49_455
F1 Rb1 F1 180.0 145 49_455
F1 Rb1 Cs1 125.264(1) 105_556 73_445
F1 Rb1 Cs1 54.736(1) 9 73_445
F1 Rb1 Cs1 125.3 125 73_445
F1 Rb1 Cs1 54.736(1) 29_545 73_445
F1 Rb1 Cs1 125.3 145 73_445
F1 Rb1 Cs1 54.736(1) 49_455 73_445
F1 Rb1 Cs1 54.736(1) 105_556 169_556
F1 Rb1 Cs1 125.264(1) 9 169_556
F1 Rb1 Cs1 54.7 125 169_556
F1 Rb1 Cs1 125.3 29_545 169_556
F1 Rb1 Cs1 54.7 145 169_556
F1 Rb1 Cs1 125.264(1) 49_455 169_556
Cs1 Rb1 Cs1 180.0 73_445 169_556
F1 Rb1 Cs1 125.264(1) 105_556 .
F1 Rb1 Cs1 54.736(1) 9 .
F1 Rb1 Cs1 54.736(1) 125 .
F1 Rb1 Cs1 125.3 29_545 .
F1 Rb1 Cs1 54.7 145 .
F1 Rb1 Cs1 125.264(1) 49_455 .
Cs1 Rb1 Cs1 109.5 73_445 .
Cs1 Rb1 Cs1 70.5 169_556 .
F1 Rb1 Cs1 125.3 105_556 121
F1 Rb1 Cs1 54.7 9 121
F1 Rb1 Cs1 54.7 125 121
F1 Rb1 Cs1 125.264(1) 29_545 121
F1 Rb1 Cs1 125.264(1) 145 121
F1 Rb1 Cs1 54.7 49_455 121
Cs1 Rb1 Cs1 70.5 73_445 121
Cs1 Rb1 Cs1 109.5 169_556 121
Cs1 Rb1 Cs1 70.5 . 121
F1 Rb1 Cs1 54.736(1) 105_556 97_556
F1 Rb1 Cs1 125.264(1) 9 97_556
F1 Rb1 Cs1 125.264(1) 125 97_556
F1 Rb1 Cs1 54.7 29_545 97_556
F1 Rb1 Cs1 125.3 145 97_556
F1 Rb1 Cs1 54.736(1) 49_455 97_556
Cs1 Rb1 Cs1 70.5 73_445 97_556
Cs1 Rb1 Cs1 109.5 169_556 97_556
Cs1 Rb1 Cs1 180.0 . 97_556
Cs1 Rb1 Cs1 109.5 121 97_556
F1 Rb1 Cs1 125.3 105_556 145
F1 Rb1 Cs1 54.7 9 145
F1 Rb1 Cs1 125.264(1) 125 145
F1 Rb1 Cs1 54.7 29_545 145
F1 Rb1 Cs1 54.7 145 145
F1 Rb1 Cs1 125.264(1) 49_455 145
Cs1 Rb1 Cs1 70.5 73_445 145
Cs1 Rb1 Cs1 109.5 169_556 145
Cs1 Rb1 Cs1 70.5 . 145
Cs1 Rb1 Cs1 109.5 121 145
Cs1 Rb1 Cs1 109.5 97_556 145
F1 Dy2 F1 90.0 . 105
F1 Dy2 F1 90.0 . 9
F1 Dy2 F1 180.0 105 9
F1 Dy2 F1 90.0 . 101
F1 Dy2 F1 90.0 105 101
F1 Dy2 F1 90.0 9 101
F1 Dy2 F1 90.0 . 5
F1 Dy2 F1 90.0 105 5
F1 Dy2 F1 90.0 9 5
F1 Dy2 F1 180.0 101 5
F1 Dy2 F1 180.0 . 97
F1 Dy2 F1 90.0 105 97
F1 Dy2 F1 90.0 9 97
F1 Dy2 F1 90.0 101 97
F1 Dy2 F1 90.0 5 97
F1 Dy2 Cs1 54.7 . .
F1 Dy2 Cs1 125.3 105 .
F1 Dy2 Cs1 54.7 9 .
F1 Dy2 Cs1 125.3 101 .
F1 Dy2 Cs1 54.7 5 .
F1 Dy2 Cs1 125.3 97 .
F1 Dy2 Cs1 125.3 . 97
F1 Dy2 Cs1 54.7 105 97
F1 Dy2 Cs1 125.3 9 97
F1 Dy2 Cs1 54.7 101 97
F1 Dy2 Cs1 125.3 5 97
F1 Dy2 Cs1 54.7 97 97
Cs1 Dy2 Cs1 180.0 . 97
F1 Dy2 Cs1 125.3 . 121
F1 Dy2 Cs1 125.3 105 121
F1 Dy2 Cs1 54.7 9 121
F1 Dy2 Cs1 125.3 101 121
F1 Dy2 Cs1 54.7 5 121
F1 Dy2 Cs1 54.7 97 121
Cs1 Dy2 Cs1 70.5 . 121
Cs1 Dy2 Cs1 109.5 97 121
F1 Dy2 Cs1 54.7 . 169
F1 Dy2 Cs1 54.7 105 169
F1 Dy2 Cs1 125.3 9 169
F1 Dy2 Cs1 125.3 101 169
F1 Dy2 Cs1 54.7 5 169
F1 Dy2 Cs1 125.3 97 169
Cs1 Dy2 Cs1 70.5 . 169
Cs1 Dy2 Cs1 109.5 97 169
Cs1 Dy2 Cs1 109.5 121 169
F1 Dy2 Cs1 54.7 . 145
F1 Dy2 Cs1 125.3 105 145
F1 Dy2 Cs1 54.7 9 145
F1 Dy2 Cs1 54.7 101 145
F1 Dy2 Cs1 125.3 5 145
F1 Dy2 Cs1 125.3 97 145
Cs1 Dy2 Cs1 70.5 . 145
Cs1 Dy2 Cs1 109.5 97 145
Cs1 Dy2 Cs1 109.5 121 145
Cs1 Dy2 Cs1 109.5 169 145
F1 Dy2 Cs1 125.3 . 73_445
F1 Dy2 Cs1 125.3 105 73_445
F1 Dy2 Cs1 54.7 9 73_445
F1 Dy2 Cs1 54.7 101 73_445
F1 Dy2 Cs1 125.3 5 73_445
F1 Dy2 Cs1 54.7 97 73_445
Cs1 Dy2 Cs1 109.5 . 73_445
Cs1 Dy2 Cs1 70.5 97 73_445
Cs1 Dy2 Cs1 70.5 121 73_445
Cs1 Dy2 Cs1 180.0 169 73_445
Cs1 Dy2 Cs1 70.5 145 73_445
F1 Cs1 F1 53.0(5) 9 5
F1 Cs1 F1 171.5(5) 9 81
F1 Cs1 F1 119.82(2) 5 81
F1 Cs1 F1 119.82(2) 9 53
F1 Cs1 F1 171.5(5) 5 53
F1 Cs1 F1 66.9(4) 81 53
F1 Cs1 F1 119.82(2) 9 25
F1 Cs1 F1 119.82(2) 5 25
F1 Cs1 F1 66.9(4) 81 25
F1 Cs1 F1 66.9(4) 53 25
F1 Cs1 F1 53.0(5) 9 .
F1 Cs1 F1 53.0(5) 5 .
F1 Cs1 F1 119.82(2) 81 .
F1 Cs1 F1 119.82(2) 53 .
F1 Cs1 F1 171.5(5) 25 .
F1 Cs1 F1 90.31(4) 9 153
F1 Cs1 F1 119.82(2) 5 153
F1 Cs1 F1 90.31(4) 81 153
F1 Cs1 F1 53.0(5) 53 153
F1 Cs1 F1 119.82(2) 25 153
F1 Cs1 F1 66.9(4) . 153
F1 Cs1 F1 90.31(4) 9 129
F1 Cs1 F1 66.9(4) 5 129
F1 Cs1 F1 90.31(4) 81 129
F1 Cs1 F1 119.82(2) 53 129
F1 Cs1 F1 53.0(5) 25 129
F1 Cs1 F1 119.82(2) . 129
F1 Cs1 F1 171.5(5) 153 129
F1 Cs1 F1 119.82(2) 9 173
F1 Cs1 F1 90.31(4) 5 173
F1 Cs1 F1 53.0(5) 81 173
F1 Cs1 F1 90.31(4) 53 173
F1 Cs1 F1 119.82(2) 25 173
F1 Cs1 F1 66.9(4) . 173
F1 Cs1 F1 66.9(4) 153 173
F1 Cs1 F1 119.82(2) 129 173
F1 Cs1 F1 66.9(4) 9 125
F1 Cs1 F1 90.31(4) 5 125
F1 Cs1 F1 119.82(2) 81 125
F1 Cs1 F1 90.31(4) 53 125
F1 Cs1 F1 53.0(5) 25 125
F1 Cs1 F1 119.82(2) . 125
F1 Cs1 F1 119.82(2) 153 125
F1 Cs1 F1 53.0(5) 129 125
F1 Cs1 F1 171.5(5) 173 125
F1 Cs1 F1 119.82(2) 9 169
F1 Cs1 F1 66.9(4) 5 169
F1 Cs1 F1 53.0(5) 81 169
F1 Cs1 F1 119.82(2) 53 169
F1 Cs1 F1 90.31(4) 25 169
F1 Cs1 F1 90.31(4) . 169
F1 Cs1 F1 119.82(2) 153 169
F1 Cs1 F1 66.9(4) 129 169
F1 Cs1 F1 53.0(5) 173 169
F1 Cs1 F1 119.82(2) 125 169
F1 Cs1 F1 66.9(4) 9 145
F1 Cs1 F1 119.82(2) 5 145
F1 Cs1 F1 119.82(2) 81 145
F1 Cs1 F1 53.0(5) 53 145
F1 Cs1 F1 90.31(4) 25 145
F1 Cs1 F1 90.31(4) . 145
F1 Cs1 F1 53.0(5) 153 145
F1 Cs1 F1 119.82(2) 129 145
F1 Cs1 F1 119.82(2) 173 145
F1 Cs1 F1 66.9(4) 125 145
F1 Cs1 F1 171.5(5) 169 145
Dy2 F1 Rb1 180.0 . 49_554
Dy2 F1 Cs1 94.2(3) . .
Rb1 F1 Cs1 85.8(3) 49_554 .
Dy2 F1 Cs1 94.2(3) . 25_544
Rb1 F1 Cs1 85.8(3) 49_554 25_544
Cs1 F1 Cs1 171.5(5) . 25_544
Dy2 F1 Cs1 94.2(3) . 169
Rb1 F1 Cs1 85.8(3) 49_554 169
Cs1 F1 Cs1 89.69(4) . 169
Cs1 F1 Cs1 89.69(4) 25_544 169
Dy2 F1 Cs1 94.2(3) . 145
Rb1 F1 Cs1 85.8(3) 49_554 145
Cs1 F1 Cs1 89.69(4) . 145
Cs1 F1 Cs1 89.69(4) 25_544 145
Cs1 F1 Cs1 171.5(5) 169 145
loop_
_geom_bond_atom_site_label_1
_geom_bond_atom_site_label_2
_geom_bond_distance
_geom_bond_site_symmetry_2
Rb1 F1 2.668(16) 105_556
Rb1 F1 2.668(16) 9
Rb1 F1 2.668(16) 125
Rb1 F1 2.668(16) 29_545
Rb1 F1 2.668(16) 145
Rb1 F1 2.668(16) 49_455
Rb1 Cs1 4.1826(16) 73_445
Rb1 Cs1 4.1826(16) 169_556
Rb1 Cs1 4.1826(16) .
Rb1 Cs1 4.1826(16) 121
Rb1 Cs1 4.1826(16) 97_556
Rb1 Cs1 4.1826(16) 145
Dy2 F1 2.162(16) .
Dy2 F1 2.162(16) 105
Dy2 F1 2.162(16) 9
Dy2 F1 2.162(16) 101
Dy2 F1 2.162(16) 5
Dy2 F1 2.162(16) 97
Dy2 Cs1 4.1826(16) .
Dy2 Cs1 4.1826(16) 97
Dy2 Cs1 4.1826(16) 121
Dy2 Cs1 4.1826(16) 169
Dy2 Cs1 4.1826(16) 145
Dy2 Cs1 4.1826(16) 73_445
Cs1 F1 3.4244(18) 9
Cs1 F1 3.4244(18) 5
Cs1 F1 3.4244(18) 81
Cs1 F1 3.4244(18) 53
Cs1 F1 3.4244(18) 25
Cs1 F1 3.4244(18) .
Cs1 F1 3.4244(18) 153
Cs1 F1 3.4244(18) 129
Cs1 F1 3.4244(18) 173
Cs1 F1 3.4244(18) 125
Cs1 F1 3.4244(18) 169
Cs1 F1 3.4244(18) 145
F1 Rb1 2.668(16) 49_554
F1 Cs1 3.4244(18) 25_544
F1 Cs1 3.4244(18) 169
F1 Cs1 3.4244(18) 145

_cod_database_fobs_code 1529333
