#------------------------------------------------------------------------------
#$Date: 2016-02-13 21:28:24 +0200 (Sat, 13 Feb 2016) $
#$Revision: 176429 $
#$URL: svn://www.crystallography.net/cod/cif/1/52/93/1529334.cif $
#------------------------------------------------------------------------------
#
# This file is available in the Crystallography Open Database (COD),
# http://www.crystallography.net/
#
# All data on this site have been placed in the public domain by the
# contributors.
#
data_1529334
loop_
_publ_author_name
'S.V. Misjul'
'M.S. Molokeev'
'L.V. Osokina'
'I.N. Saphonov'
_publ_section_title
;
 Structural Changes during Phase Transitions, Critical and Noncritical
 Order Parameters in the Elpasolite Cs2RbDyF6
;
_journal_issue                   4
_journal_name_full
'Journal of Siberian Federal University. Mathematics & Physics'
_journal_page_first              566
_journal_page_last               575
_journal_volume                  5
_journal_year                    2012
_chemical_formula_sum            'Cs2 Dy F6 Rb'
_chemical_formula_weight         627.77
_space_group_IT_number           14
_symmetry_space_group_name_Hall  '-P 2yn'
_symmetry_space_group_name_H-M   'P 1 21/n 1'
_atom_type_scat_source
;
X-Ray Form Factor, C Attenuation and Scattering Tables (version 2.1).
NIST, Gaithersburg, MD.
;
_cell_angle_alpha                90.000000
_cell_angle_beta                 90.356(7)
_cell_angle_gamma                90.000000
_cell_formula_units_Z            2
_cell_length_a                   6.8072(8)
_cell_length_b                   6.8012(9)
_cell_length_c                   9.6379(18)
_cell_volume                     446.20(11)
_diffrn_radiation_probe          x-ray
_exptl_crystal_density_diffrn    4.6742
_pd_meas_2theta_range_inc        0.0161
_pd_meas_2theta_range_max        109.9000
_pd_meas_2theta_range_min        5.0000
_pd_proc_ls_prof_wR_expected     0.05155
_pd_proc_ls_prof_wR_factor       0.11835
_refine_ls_R_factor_all          0.09221
_refine_ls_R_I_factor            0.04844
_refine_ls_shift/su_max          1.81795
_cod_data_source_file            Cs2RbDyF6_133K.cif
_cod_data_source_block           b
_cod_original_sg_symbol_Hall     '-P 2YN              '
_cod_original_sg_symbol_H-M      'P 21/n              '
_cod_original_formula_sum        'Cs2 Dy F6 Rb '
_cod_database_code               1529334
_cod_database_fobs_code          1529334
loop_
_symmetry_equiv_pos_site_id
_symmetry_equiv_pos_as_xyz
1 'x, y, z'
2 '1/2-x, 1/2+y, 1/2-z'
3 '-x, -y, -z'
4 '1/2+x, 1/2-y, 1/2+z'
loop_
_atom_site_label
_atom_site_type_symbol
_atom_site_fract_x
_atom_site_fract_y
_atom_site_fract_z
_atom_site_U_iso_or_equiv
_atom_site_occupancy
_atom_site_adp_type
Rb1 Rb 0.00000 0.00000 0.50000 0.0080(38) 1.0000 Uiso
Cs1 Cs 0.4965(18) 0.0094(7) 0.2492(23) 0.0162(21) 1.0000 Uiso
Dy1 Dy 0.00000 0.00000 0.00000 0.0043(23) 1.0000 Uiso
F1 F -0.103(6) -0.009(7) -0.209(6) 0.0127 1.0000 Uiso
F2 F 0.267(13) 0.225(13) -0.002(12) 0.0127 1.0000 Uiso
F3 F 0.217(9) -0.193(14) -0.052(10) 0.0127 1.0000 Uiso
loop_
_atom_type_symbol
_atom_type_scat_dispersion_real
_atom_type_scat_dispersion_imag
Rb -0.49002 1.60052
Cs -0.95298 7.88228
Dy -10.54479 9.89092
F 0.06798 0.05302
loop_
_diffrn_radiation_wavelength
_diffrn_radiation_wavelength_wt
1.5406 1.0000
1.5443 0.5000
loop_
_refln_index_h
_refln_index_k
_refln_index_l
_refln_F_meas
_refln_F_calc
_refln_phase_calc
1 0 -1 60.982 60.354 0.0000
0 1 1 65.113 64.087 0.0000
1 0 1 34.745 35.363 0.0000
0 0 2 12.144 8.4885 0.0000
1 1 0 14.285 8.0299 0.0000
1 1 -1 9.5201 11.972 3.1416
1 1 1 .00000 4.2724 0.0000
0 1 2 .00000 18.275 3.1416
1 1 -2 320.49 325.40 0.0000
2 0 0 291.23 294.25 0.0000
0 2 0 317.20 320.04 0.0000
1 1 2 314.52 320.17 0.0000
0 2 1 20.762 30.519 3.1416
2 1 0 10.057 15.904 0.0000
1 2 0 10.923 7.3058 0.0000
1 0 -3 14.716 25.877 3.1416
2 1 -1 39.015 42.671 0.0000
0 1 3 25.781 25.919 0.0000
1 2 -1 59.587 65.680 0.0000
1 2 1 16.129 17.874 0.0000
1 0 3 75.230 62.389 0.0000
2 1 1 18.436 18.449 0.0000
2 0 -2 79.751 68.476 3.1416
0 2 2 90.925 86.669 -3.1416
2 0 2 80.725 80.580 3.1416
1 1 -3 .00000 2.1007 0.0000
1 1 3 43.485 25.849 3.1416
2 1 -2 .00000 1.3018 0.0000
1 2 -2 1.6140 10.511 0.0000
1 2 2 5.9953 4.1569 0.0000
2 1 2 28.192 27.294 0.0000
0 0 4 353.40 352.07 0.0000
2 2 0 357.35 353.52 0.0000
2 2 -1 19.680 22.159 0.0000
0 2 3 12.100 8.0277 0.0000
2 2 1 14.962 8.1436 -3.1416
0 1 4 .00000 19.753 -3.1416
2 1 -3 10.046 17.246 0.0000
1 2 -3 21.871 26.866 0.0000
3 0 -1 38.332 62.963 0.0000
0 3 1 10.664 17.419 0.0000
1 2 3 17.617 24.899 0.0000
3 0 1 16.684 21.805 3.1416
2 1 3 15.341 31.883 0.0000
1 1 -4 3.1505 27.357 -3.1416
2 2 -2 11.451 30.035 0.0000
3 1 0 24.899 28.899 -3.1416
1 3 0 5.8848 6.4748 0.0000
1 1 4 12.457 15.437 0.0000
2 2 2 6.3006 6.6409 3.1416
3 1 -1 .80189 8.9630 -3.1416
1 3 -1 22.966 15.509 -3.1416
1 3 1 23.565 34.485 0.0000
3 1 1 14.640 18.326 0.0000
0 3 2 .00000 4.0731 0.0000
2 0 -4 242.66 232.44 0.0000
3 1 -2 310.24 298.81 0.0000
0 2 4 278.44 266.49 0.0000
1 3 -2 275.86 279.57 0.0000
1 3 2 255.78 243.66 0.0000
3 1 2 277.47 270.73 0.0000
2 0 4 280.34 283.25 0.0000
2 2 -3 20.009 22.147 -3.1416
2 2 3 27.554 34.239 0.0000
2 1 -4 56.062 10.818 3.1416
1 2 -4 27.893 2.6407 3.1416
3 2 0 .51591 8.4012 3.1416
2 3 0 11.882 10.363 -3.1416
1 2 4 27.476 5.7229 3.1416
2 1 4 43.323 23.234 0.0000
3 0 -3 20.718 30.710 0.0000
1 0 -5 23.868 28.431 0.0000
0 1 5 58.580 56.760 0.0000
3 2 -1 55.358 54.690 0.0000
2 3 -1 75.351 72.243 0.0000
0 3 3 19.142 17.213 3.1416
1 0 5 42.562 54.922 0.0000
2 3 1 47.427 43.620 0.0000
3 2 1 18.973 14.743 0.0000
3 0 3 46.755 47.667 0.0000
3 1 -3 11.472 10.305 0.0000
1 1 -5 27.112 25.780 3.1416
1 3 -3 30.665 35.111 0.0000
1 1 5 20.308 17.970 3.1416
1 3 3 21.281 8.1726 -3.1416
3 1 3 13.286 12.217 0.0000
3 2 -2 .00000 4.9655 -3.1416
2 3 -2 6.7345 .46662 0.0000
2 3 2 6.7513 10.639 -3.1416
3 2 2 .00000 5.5207 0.0000
2 2 -4 269.76 272.47 0.0000
4 0 0 273.43 272.81 0.0000
0 4 0 292.93 292.00 0.0000
2 2 4 293.81 291.46 0.0000
0 2 5 18.758 28.399 3.1416
0 4 1 28.918 29.774 -3.1416
0 3 4 4.1060 10.847 0.0000
4 1 0 1.5112 20.334 -3.1416
1 4 0 .18119 10.325 3.1416
2 1 -5 54.113 32.525 0.0000
3 2 -3 20.795 14.519 0.0000
1 2 -5 64.994 61.805 0.0000
2 3 -3 40.127 39.503 0.0000
4 1 -1 42.030 31.901 0.0000
1 4 -1 42.504 43.610 0.0000
1 2 5 14.925 23.713 0.0000
1 4 1 23.965 22.015 0.0000
4 1 1 37.304 35.606 0.0000
2 3 3 47.117 41.193 0.0000
2 1 5 33.611 39.223 0.0000
3 2 3 73.131 64.833 0.0000
3 1 -4 16.835 24.365 3.1416
4 0 -2 36.565 41.294 0.0000
0 0 6 11.037 5.7104 3.1416
1 3 -4 5.2356 6.7270 0.0000
3 3 0 10.049 10.265 -3.1416
0 4 2 9.5743 8.1245 3.1416
1 3 4 5.3234 9.5113 -3.1416
4 0 2 17.101 16.883 0.0000
3 1 4 6.8710 7.3477 3.1416
3 3 -1 44.904 31.362 -3.1416
3 3 1 38.188 13.452 0.0000
4 1 -2 7.3550 10.946 -3.1416
0 1 6 22.959 14.977 -3.1416
1 4 -2 6.3229 1.5470 -3.1416
1 4 2 11.144 .50194 0.0000
4 1 2 17.599 22.945 3.1416
1 1 -6 235.58 245.63 0.0000
3 3 -2 233.47 249.76 0.0000
4 2 0 194.42 204.00 0.0000
1 1 6 224.33 235.83 0.0000
2 4 0 224.38 227.52 0.0000
3 3 2 250.33 249.11 0.0000
2 2 -5 5.3757 5.0409 0.0000
4 2 -1 14.335 6.0449 0.0000
2 4 -1 33.773 25.932 0.0000
0 4 3 46.130 45.271 0.0000
4 2 1 18.862 25.432 3.1416
2 4 1 38.923 44.153 -3.1416
2 2 5 9.6599 6.6204 3.1416
3 2 -4 4.2501 4.5932 -3.1416
2 3 -4 11.820 .90986 0.0000
2 3 4 5.8571 9.5469 -3.1416
3 2 4 1.1727 6.0794 0.0000
3 0 -5 49.218 51.256 0.0000
4 1 -3 47.106 48.327 0.0000
0 3 5 40.527 39.972 0.0000
1 4 -3 17.964 16.209 0.0000
1 4 3 43.528 32.669 0.0000
4 1 3 30.755 31.403 0.0000
3 0 5 22.440 14.182 3.1416
2 0 -6 14.115 11.151 -3.1416
4 2 -2 20.718 18.749 -3.1416
0 2 6 21.597 20.367 -3.1416
2 4 -2 18.090 17.840 3.1416
2 4 2 23.775 31.124 3.1416
2 0 6 26.184 29.286 -3.1416
4 2 2 15.631 15.985 3.1416
3 1 -5 3.8083 1.8685 3.1416
3 3 -3 25.570 17.733 0.0000
1 3 -5 13.083 10.037 3.1416
1 3 5 30.709 35.215 0.0000
3 3 3 27.758 33.901 3.1416
3 1 5 26.982 30.779 0.0000
2 1 -6 29.145 10.103 3.1416
1 2 -6 21.990 5.4070 -3.1416
1 2 6 15.401 11.257 3.1416
2 1 6 .00000 11.369 0.0000
4 0 -4 264.21 240.62 0.0000
0 4 4 252.32 243.95 0.0000
4 0 4 223.57 231.65 0.0000
4 2 -3 9.5617 12.788 3.1416
2 4 -3 23.058 20.362 -3.1416
2 4 3 24.506 14.759 0.0000
4 2 3 10.041 3.4674 0.0000
4 1 -4 16.366 .61328 0.0000
1 4 -4 7.6673 1.2677 3.1416
4 3 0 .00000 11.185 0.0000
3 4 0 .00000 1.1879 3.1416
1 4 4 .00000 8.0014 0.0000
4 1 4 .00000 16.982 -3.1416
3 2 -5 27.639 20.594 0.0000
1 0 -7 22.953 15.950 3.1416
2 3 -5 59.716 41.751 0.0000
0 1 7 13.455 15.287 0.0000
5 0 -1 38.202 36.606 0.0000
4 3 -1 13.048 13.593 0.0000
3 4 -1 35.863 47.580 0.0000
1 0 7 32.493 29.543 0.0000
0 5 1 45.211 52.870 0.0000
5 0 1 22.066 19.309 0.0000
4 3 1 14.569 21.580 0.0000
3 4 1 12.221 14.222 0.0000
2 3 5 30.492 35.130 0.0000
3 2 5 10.265 15.860 0.0000
2 2 -6 10.931 19.906 0.0000
3 3 -4 26.153 30.889 -3.1416
5 1 0 25.799 18.741 3.1416
1 5 0 13.081 10.125 0.0000
2 2 6 26.974 15.842 -3.1416
3 3 4 12.264 13.100 0.0000
1 1 -7 14.093 13.359 3.1416
5 1 -1 7.2139 9.2466 -3.1416
1 1 7 30.809 30.930 3.1416
1 5 -1 30.315 43.540 3.1416
5 1 1 2.1584 2.5820 3.1416
1 5 1 37.291 17.680 0.0000
4 3 -2 3.2718 5.1662 0.0000
3 4 -2 .71530 9.5598 0.0000
0 3 6 5.6929 2.3739 0.0000
0 5 2 3.5982 .10944 -3.1416
3 4 2 1.7127 1.2093 0.0000
4 3 2 5.0252 11.638 0.0000
3 1 -6 243.67 232.56 0.0000
4 2 -4 191.26 181.81 0.0000
5 1 -2 231.80 225.28 0.0000
1 3 -6 224.84 232.83 0.0000
2 4 -4 197.24 190.94 0.0000
1 5 -2 191.70 197.37 0.0000
1 3 6 188.86 194.68 0.0000
1 5 2 200.30 205.65 0.0000
2 4 4 210.91 212.83 0.0000
5 1 2 222.60 228.75 0.0000
3 1 6 195.32 199.23 0.0000
4 2 4 194.29 206.18 0.0000
0 2 7 8.3394 6.8192 0.0000
0 4 5 16.370 14.436 -3.1416
5 2 0 2.5018 .46908 3.1416
2 5 0 .38623 1.2939 -3.1416
4 1 -5 26.502 17.659 0.0000
2 1 -7 16.541 26.589 0.0000
5 0 -3 30.186 19.804 0.0000
1 2 -7 32.958 29.657 0.0000
4 3 -3 20.142 23.158 0.0000
3 4 -3 24.020 20.798 0.0000
1 4 -5 29.929 33.489 0.0000
5 2 -1 28.827 33.448 0.0000
1 2 7 29.062 19.638 0.0000
2 5 -1 17.537 16.802 0.0000
0 5 3 35.649 31.373 0.0000
1 4 5 28.197 29.177 0.0000
5 2 1 14.747 13.321 0.0000
2 5 1 20.802 16.940 3.1416
2 1 7 14.284 16.460 0.0000
3 4 3 40.321 46.139 0.0000
4 3 3 16.256 24.307 0.0000
5 0 3 57.835 51.536 0.0000
4 1 5 29.017 26.306 0.0000
3 3 -5 9.2937 28.302 3.1416
5 1 -3 1.1735 8.0852 0.0000
1 5 -3 .00000 20.130 0.0000
1 5 3 9.3833 37.578 3.1416
3 3 5 6.0669 4.5689 0.0000
5 1 3 19.232 23.016 -3.1416
3 2 -6 12.984 1.8146 0.0000
2 3 -6 25.755 3.2149 0.0000
5 2 -2 1.1295 4.8650 0.0000
2 5 -2 .30402 5.0932 0.0000
2 5 2 .00000 .39516 0.0000
2 3 6 .00000 7.5392 -3.1416
5 2 2 .00000 2.4356 3.1416
3 2 6 .00000 12.566 0.0000
0 0 8 209.17 198.81 0.0000
4 4 0 209.18 199.28 0.0000
4 2 -5 20.398 15.279 0.0000
2 2 -7 19.943 17.361 3.1416
2 4 -5 38.523 31.440 0.0000
4 4 -1 22.596 30.431 0.0000
4 4 1 15.182 9.5196 -3.1416
2 2 7 13.896 17.036 0.0000
2 4 5 28.830 38.410 3.1416
4 2 5 8.6241 18.622 3.1416
4 3 -4 .00000 4.4268 0.0000
3 4 -4 .00000 1.0597 0.0000
0 1 8 .00000 3.5226 -3.1416
0 5 4 .61786 6.3030 0.0000
3 4 4 23.182 15.229 3.1416
4 3 4 12.779 8.7432 0.0000
3 0 -7 63.656 42.766 0.0000
5 2 -3 42.549 28.558 0.0000
0 3 7 19.419 16.262 0.0000
2 5 -3 26.124 16.894 3.1416
2 5 3 16.119 17.381 0.0000
3 0 7 45.974 36.890 0.0000
5 2 3 33.978 41.441 0.0000
4 0 -6 13.697 16.953 0.0000
5 1 -4 10.374 12.506 3.1416
1 1 -8 4.7786 19.179 -3.1416
4 4 -2 .00000 19.617 0.0000
0 4 6 .00000 6.5201 0.0000
1 5 -4 .00000 13.946 -3.1416
1 1 8 .00000 3.7570 3.1416
5 3 0 2.7265 21.123 -3.1416
3 5 0 3.4003 9.3514 -3.1416
1 5 4 6.3924 20.716 0.0000
4 4 2 4.9153 12.731 0.0000
5 1 4 9.6045 9.8624 3.1416
4 0 6 5.0521 10.891 3.1416
3 1 -7 25.559 18.280 0.0000
1 3 -7 45.876 32.127 0.0000
5 3 -1 28.464 14.957 -3.1416
3 5 -1 44.395 21.297 3.1416
1 3 7 6.0951 4.4142 3.1416
5 3 1 26.822 27.271 0.0000
3 5 1 34.081 38.808 0.0000
3 1 7 16.176 16.715 0.0000
4 1 -6 7.7512 3.5083 0.0000
1 4 -6 5.5886 10.833 0.0000
1 4 6 12.312 12.523 0.0000
4 1 6 5.8786 7.6158 3.1416
2 0 -8 181.16 178.25 0.0000
3 3 -6 192.99 190.07 0.0000
5 3 -2 183.99 198.41 0.0000
0 2 8 178.96 183.64 0.0000
3 5 -2 185.25 199.14 0.0000
6 0 0 157.50 171.25 0.0000
0 6 0 192.02 195.91 0.0000
2 0 8 197.89 199.96 0.0000
3 5 2 173.99 178.17 0.0000
5 3 2 187.86 192.65 0.0000
3 3 6 182.79 183.85 0.0000
4 4 -3 30.563 19.461 3.1416
0 6 1 45.608 40.320 -3.1416
4 4 3 34.317 35.139 0.0000
2 1 -8 10.735 4.7742 -3.1416
5 2 -4 1.5092 4.2335 0.0000
1 2 -8 10.005 9.1779 -3.1416
2 5 -4 6.9517 2.4053 0.0000
6 1 0 6.5599 17.523 0.0000
1 2 8 12.497 9.7891 3.1416
1 6 0 2.6507 2.6962 3.1416
2 1 8 4.1335 3.1038 0.0000
2 5 4 5.7369 .43992 3.1416
5 2 4 10.327 10.513 3.1416
5 0 -5 13.167 17.820 0.0000
3 2 -7 17.574 17.505 0.0000
4 3 -5 10.389 14.830 3.1416
2 3 -7 11.626 26.222 0.0000
3 4 -5 18.860 31.238 0.0000
6 1 -1 11.459 13.783 -3.1416
0 5 5 42.570 41.167 0.0000
1 6 -1 30.682 32.656 0.0000
6 1 1 36.084 40.222 0.0000
1 6 1 17.731 21.969 0.0000
2 3 7 15.045 13.878 0.0000
3 4 5 16.955 14.317 0.0000
3 2 7 50.418 34.111 0.0000
4 3 5 27.424 28.284 0.0000
5 0 5 13.844 12.915 3.1416
4 2 -6 8.0202 10.145 3.1416
2 4 -6 3.3212 2.3243 0.0000
6 0 -2 21.241 17.761 -3.1416
0 6 2 3.4023 8.9742 3.1416
2 4 6 4.1335 19.083 3.1416
6 0 2 2.3067 3.4995 0.0000
4 2 6 2.9235 10.120 3.1416
5 1 -5 4.3081 6.2484 -3.1416
5 3 -3 2.6768 20.757 0.0000
3 5 -3 24.274 39.468 0.0000
1 5 -5 28.572 36.410 -3.1416
1 5 5 34.820 18.846 0.0000
3 5 3 45.170 19.715 -3.1416
5 3 3 19.139 8.0420 3.1416
5 1 5 20.186 12.721 -3.1416
6 1 -2 .00000 10.784 0.0000
1 6 -2 .00000 3.0962 0.0000
1 6 2 .00000 1.2841 3.1416
6 1 2 5.1718 14.496 0.0000
2 2 -8 160.52 177.42 0.0000
4 4 -4 163.22 180.13 0.0000
6 2 0 186.99 184.17 0.0000
2 6 0 182.49 180.25 0.0000
2 2 8 195.56 191.09 0.0000
4 4 4 184.50 186.22 0.0000
6 2 -1 10.822 17.415 0.0000
0 4 7 29.170 28.134 0.0000
2 6 -1 32.221 34.767 0.0000
0 6 3 27.095 27.874 0.0000
6 2 1 7.8447 2.7711 3.1416
2 6 1 30.574 26.549 -3.1416
0 3 8 7.9124 3.6011 0.0000
5 4 0 1.0523 2.1666 -3.1416
4 5 0 1.1218 .76861 -3.1416
4 1 -7 33.781 37.956 0.0000
5 2 -5 27.134 30.836 0.0000
1 0 -9 24.643 19.157 0.0000
6 1 -3 39.329 38.379 0.0000
0 1 9 45.930 31.824 0.0000
1 4 -7 21.176 18.344 0.0000
2 5 -5 23.463 18.652 0.0000
5 4 -1 28.224 26.848 0.0000
1 0 9 15.468 25.778 0.0000
4 5 -1 35.330 31.555 0.0000
1 6 -3 17.494 15.858 0.0000
1 4 7 26.893 21.899 0.0000
5 4 1 15.045 13.278 0.0000
4 5 1 31.095 33.968 0.0000
1 6 3 21.945 30.008 0.0000
2 5 5 17.075 26.969 0.0000
6 1 3 6.1651 13.354 0.0000
4 1 7 5.7276 17.532 0.0000
5 2 5 5.8315 12.452 3.1416
3 1 -8 4.4525 6.0586 -3.1416
5 3 -4 4.6900 2.1081 3.1416
1 3 -8 5.2692 4.2633 3.1416
6 2 -2 13.700 15.302 0.0000
3 5 -4 4.2763 1.5506 0.0000
1 3 8 4.7171 2.9037 -3.1416
2 6 -2 2.6798 5.5014 0.0000
2 6 2 7.0078 1.2228 -3.1416
6 2 2 17.881 13.660 0.0000
3 5 4 7.9437 1.4218 3.1416
3 1 8 7.3139 8.7988 0.0000
5 3 4 19.936 10.796 -3.1416
3 3 -7 6.2009 9.0724 0.0000
1 1 -9 .00000 23.898 3.1416
1 1 9 19.003 13.822 -3.1416
3 3 7 49.297 27.110 3.1416
4 3 -6 13.890 2.3467 -3.1416
3 4 -6 10.000 3.1429 3.1416
5 4 -2 .00000 3.3553 -3.1416
4 5 -2 .00000 4.6232 -3.1416
0 5 6 .00000 .98300 3.1416
4 5 2 .00000 1.0239 3.1416
5 4 2 .00000 9.5197 0.0000
3 4 6 .00000 10.989 3.1416
4 3 6 .00000 4.2018 0.0000
5 1 -6 201.92 170.39 0.0000
6 0 -4 184.72 159.57 0.0000
1 5 -6 181.31 165.60 0.0000
0 6 4 183.43 169.02 0.0000
1 5 6 174.19 171.70 0.0000
6 0 4 161.81 164.06 0.0000
4 2 -7 4.8443 5.5613 -3.1416
5 1 6 180.14 173.85 0.0000
4 4 -5 10.775 15.034 0.0000
6 2 -3 12.645 6.9791 -3.1416
2 4 -7 11.255 11.756 -3.1416
0 2 9 11.124 10.444 -3.1416
2 6 -3 33.425 31.437 3.1416
2 4 7 15.625 17.897 0.0000
2 6 3 35.372 42.020 0.0000
6 2 3 11.092 15.619 0.0000
4 4 5 13.608 13.517 3.1416
4 2 7 8.7026 9.9933 0.0000
3 2 -8 7.6012 5.8060 0.0000
6 1 -4 6.5820 6.4202 0.0000
2 3 -8 4.5137 1.4171 0.0000
1 6 -4 10.561 7.1206 -3.1416
6 3 0 1.6581 6.2691 3.1416
3 6 0 4.9812 4.0521 -3.1416
1 6 4 15.365 7.3098 3.1416
2 3 8 1.2138 .93101 0.0000
3 2 8 9.9735 7.9637 0.0000
6 1 4 8.4522 10.602 0.0000
2 1 -9 31.294 20.760 0.0000
1 2 -9 21.323 26.136 0.0000
5 4 -3 25.914 17.802 0.0000
4 5 -3 47.667 43.179 0.0000
6 3 -1 21.547 14.230 0.0000
1 2 9 21.539 25.135 0.0000
3 6 -1 35.105 30.487 0.0000
2 1 9 41.106 37.914 0.0000
6 3 1 49.334 40.349 0.0000
3 6 1 15.196 14.074 3.1416
4 5 3 29.416 24.800 0.0000
5 4 3 43.894 35.122 0.0000
5 3 -5 19.381 12.310 3.1416
3 5 -5 35.505 20.548 3.1416
3 5 5 39.537 27.715 0.0000
5 2 -6 6.3700 1.0595 0.0000
5 3 5 38.627 26.402 0.0000
2 5 -6 1.0109 4.1716 0.0000
6 3 -2 1.2190 10.665 3.1416
3 6 -2 .00000 2.8090 0.0000
2 5 6 .00000 2.7663 -3.1416
3 6 2 .00000 9.9262 0.0000
6 3 2 .00000 11.208 -3.1416
5 2 6 .00000 6.0156 -3.1416
4 0 -8 191.12 171.72 0.0000
6 2 -4 193.18 180.21 0.0000
0 4 8 162.94 166.10 0.0000
2 6 -4 154.64 157.58 0.0000
2 6 4 164.44 174.36 0.0000
6 2 4 156.20 157.45 0.0000
4 0 8 166.36 172.52 0.0000
2 2 -9 6.6711 6.7650 0.0000
0 6 5 42.168 36.517 3.1416
2 2 9 11.251 11.356 3.1416
4 1 -8 10.501 4.3870 0.0000
5 4 -4 2.4884 4.0931 3.1416
1 4 -8 13.911 11.044 0.0000
4 5 -4 3.4333 1.1085 3.1416
1 4 8 13.090 14.131 0.0000
5 0 -7 23.785 14.321 0.0000
4 5 4 2.1493 .89509 3.1416
3 0 -9 15.526 25.517 0.0000
5 4 4 8.1059 6.6784 0.0000
4 1 8 1.3892 .20510 0.0000
6 1 -5 15.211 13.426 3.1416
4 3 -7 21.761 29.434 0.0000
3 4 -7 30.265 26.587 0.0000
6 3 -3 49.424 47.844 0.0000
0 3 9 41.282 33.625 0.0000
7 0 -1 20.994 25.415 0.0000
3 6 -3 18.217 16.542 0.0000
0 5 7 14.609 15.543 0.0000
1 6 -5 27.939 24.938 0.0000
7 0 1 12.596 14.608 0.0000
1 6 5 16.686 26.408 0.0000
0 7 1 15.815 16.297 0.0000
3 6 3 35.484 28.878 0.0000
3 0 9 11.157 20.489 0.0000
3 4 7 34.166 31.674 0.0000
6 3 3 12.776 12.453 0.0000
4 3 7 13.517 20.857 0.0000
3 3 -8 11.745 13.551 -3.1416
6 1 5 30.348 31.871 0.0000
5 0 7 40.402 35.525 0.0000
4 4 -6 9.9774 12.966 0.0000
0 0 10 2.1124 6.8055 0.0000
7 1 0 5.4049 3.3327 -3.1416
5 5 0 1.2705 .98175 3.1416
1 7 0 8.2476 12.159 0.0000
5 1 -7 3.7002 1.2271 3.1416
3 3 8 6.6328 7.7719 0.0000
3 1 -9 9.8154 8.5026 0.0000
4 4 6 2.0373 3.5620 0.0000
1 3 -9 5.3701 5.4621 -3.1416
1 5 -7 19.766 20.569 0.0000
7 1 -1 3.4711 2.2634 -3.1416
5 5 -1 18.991 32.053 3.1416
1 3 9 19.928 25.844 0.0000
1 5 7 19.774 27.077 3.1416
7 1 1 7.8420 12.722 0.0000
1 7 -1 26.412 20.649 -3.1416
5 5 1 20.391 20.316 0.0000
1 7 1 21.936 39.222 0.0000
3 1 9 16.881 19.546 0.0000
5 1 7 22.402 19.840 -3.1416
0 1 10 1.2491 1.7204 0.0000
0 7 2 2.1303 6.1016 3.1416
4 2 -8 154.75 153.03 0.0000
5 3 -6 163.33 165.22 0.0000
1 1 -10 161.60 166.72 0.0000
2 4 -8 145.46 143.80 0.0000
3 5 -6 162.78 172.89 0.0000
7 1 -2 149.61 154.33 0.0000
5 5 -2 158.13 161.39 0.0000
1 1 10 149.02 160.25 0.0000
6 4 0 140.95 144.71 0.0000
4 6 0 145.73 145.71 0.0000
1 7 -2 149.81 152.11 0.0000
2 4 8 165.58 156.67 0.0000
1 7 2 139.06 141.62 0.0000
7 1 2 160.78 160.95 0.0000
5 5 2 172.90 166.77 0.0000
3 5 6 148.26 145.20 0.0000
4 2 8 167.60 162.64 0.0000
6 2 -5 5.8352 9.2553 0.0000
5 3 6 166.03 158.37 0.0000
0 0 0 534.00 534.00 0.0000
