#------------------------------------------------------------------------------
#$Date: 2016-02-13 21:28:24 +0200 (Sat, 13 Feb 2016) $
#$Revision: 176429 $
#$URL: svn://www.crystallography.net/cod/cif/1/53/09/1530954.cif $
#------------------------------------------------------------------------------
#
# This file is available in the Crystallography Open Database (COD),
# http://www.crystallography.net/
#
# All data on this site have been placed in the public domain by the
# contributors.
#
data_1530954
loop_
_publ_author_name
'Vilminot, S.'
'Perez, G.'
'Granier, W.'
'Cot, L.'
_publ_section_title
;
 Sur le compose Tl Sn2 F5, conducteur ionique par F-
;
_journal_name_full               'Revue de Chimie Minerale'
_journal_page_first              3976
_journal_page_last               4036
_journal_volume                  17
_journal_year                    1980
_chemical_formula_sum            'F5 K Sn2'
_chemical_name_systematic        'K (Sn2 F5)'
_space_group_IT_number           156
_symmetry_space_group_name_Hall  'P 3 -2"'
_symmetry_space_group_name_H-M   'P 3 m 1'
_cell_angle_alpha                90
_cell_angle_beta                 90
_cell_angle_gamma                120
_cell_formula_units_Z            1
_cell_length_a                   4.06
_cell_length_b                   4.06
_cell_length_c                   9.45
_cell_volume                     134.901
_citation_journal_id_ASTM        RVCMA8
_cod_data_source_file            Vilminot_RVCMA8_1980_664.cif
_cod_data_source_block           F5K1Sn2
_cod_original_cell_volume        134.9008
_cod_original_formula_sum        'F5 K1 Sn2'
_cod_database_code               1530954
loop_
_symmetry_equiv_pos_as_xyz
x,y,z
-y,x-y,z
-x+y,-x,z
-y,-x,z
x,x-y,z
-x+y,y,z
loop_
_atom_site_label
_atom_site_type_symbol
_atom_site_fract_x
_atom_site_fract_y
_atom_site_fract_z
_atom_site_occupancy
_atom_site_U_iso_or_equiv
Sn1 Sn+2 0.3333 0.6667 0.3554 1 0.0
F5 F-1 0.767 0.233 0.277 0.333 0.0
F4 F-1 0 0 0.746 0.5 0.0
F6 F-1 0.218 -0.218 0.737 0.333 0.0
F1 F-1 0.3333 0.6667 0.162 1 0.0
Sn2 Sn+2 0.6667 0.3333 0.7042 1 0.0
K1 K+1 0 0 0.05 1 0.0
F3 F-1 0 0 0.335 0.5 0.0
F2 F-1 0.6667 0.3333 0.913 1 0.0
