#------------------------------------------------------------------------------
#$Date: 2016-02-13 21:28:24 +0200 (Sat, 13 Feb 2016) $
#$Revision: 176429 $
#$URL: svn://www.crystallography.net/cod/cif/1/53/14/1531406.cif $
#------------------------------------------------------------------------------
#
# This file is available in the Crystallography Open Database (COD),
# http://www.crystallography.net/
#
# All data on this site have been placed in the public domain by the
# contributors.
#
data_1531406
loop_
_publ_author_name
'Fitz, H.'
'Mueller, B.G.'
'Grandejus, O.'
'Bartlett, N.'
_publ_section_title
;
 Einkristalluntersuchungen an Li M F6 (M = Rh, Ir), Li2 Rh F6 und K2 Ir F6
;
_journal_name_full
'Zeitschrift fuer Anorganische und Allgemeine Chemie'
_journal_page_first              133
_journal_page_last               137
_journal_volume                  628
_journal_year                    2002
_chemical_formula_sum            'F6 Li Rh'
_chemical_name_systematic        'Li (Rh F6)'
_space_group_IT_number           148
_symmetry_space_group_name_Hall  '-R 3'
_symmetry_space_group_name_H-M   'R -3 :H'
_cell_angle_alpha                90
_cell_angle_beta                 90
_cell_angle_gamma                120
_cell_formula_units_Z            3
_cell_length_a                   5.02018
_cell_length_b                   5.02018
_cell_length_c                   13.5588
_cell_volume                     295.931
_citation_journal_id_ASTM        ZAACAB
_cod_data_source_file            Fitz_ZAACAB_2002_971.cif
_cod_data_source_block           F6Li1Rh1
_cod_original_formula_sum        'F6 Li1 Rh1'
_cod_database_code               1531406
loop_
_symmetry_equiv_pos_as_xyz
x,y,z
-y,x-y,z
-x+y,-x,z
-x,-y,-z
y,-x+y,-z
x-y,x,-z
x+2/3,y+1/3,z+1/3
-y+2/3,x-y+1/3,z+1/3
-x+y+2/3,-x+1/3,z+1/3
-x+2/3,-y+1/3,-z+1/3
y+2/3,-x+y+1/3,-z+1/3
x-y+2/3,x+1/3,-z+1/3
x+1/3,y+2/3,z+2/3
-y+1/3,x-y+2/3,z+2/3
-x+y+1/3,-x+2/3,z+2/3
-x+1/3,-y+2/3,-z+2/3
y+1/3,-x+y+2/3,-z+2/3
x-y+1/3,x+2/3,-z+2/3
loop_
_atom_site_label
_atom_site_type_symbol
_atom_site_fract_x
_atom_site_fract_y
_atom_site_fract_z
_atom_site_occupancy
_atom_site_U_iso_or_equiv
Li1 Li+1 0 0 0.5 1 0.0
Rh1 Rh+5 0 0 0 1 0.0
F1 F-1 0.3147 0.2844 0.9205 1 0.0
