#------------------------------------------------------------------------------
#$Date: 2016-02-13 21:28:24 +0200 (Sat, 13 Feb 2016) $
#$Revision: 176429 $
#$URL: svn://www.crystallography.net/cod/cif/1/53/21/1532199.cif $
#------------------------------------------------------------------------------
#
# This file is available in the Crystallography Open Database (COD),
# http://www.crystallography.net/
#
# All data on this site have been placed in the public domain by the
# contributors.
#
data_1532199
loop_
_publ_author_name
'Schmidt, R.'
'Kraus, M.'
'Mueller, B.G.'
_publ_section_title
;
 Neue Fluorozirconate und -hafnate mit V(2+) und Ti(2+)
;
_journal_name_full
'Zeitschrift fuer Anorganische und Allgemeine Chemie'
_journal_page_first              2344
_journal_page_last               2350
_journal_volume                  627
_journal_year                    2001
_chemical_formula_sum            'F11 Hf2 Na V'
_chemical_name_systematic        'Na (V Hf2 F11)'
_space_group_IT_number           12
_symmetry_space_group_name_Hall  '-C 2y'
_symmetry_space_group_name_H-M   'C 1 2/m 1'
_cell_angle_alpha                90
_cell_angle_beta                 116.1
_cell_angle_gamma                90
_cell_formula_units_Z            2
_cell_length_a                   9.105
_cell_length_b                   6.759
_cell_length_c                   7.736
_cell_volume                     427.532
_citation_journal_id_ASTM        ZAACAB
_cod_data_source_file            Schmidt_ZAACAB_2001_44.cif
_cod_data_source_block           F11Hf2Na1V1
_cod_original_cell_volume        427.5319
_cod_original_formula_sum        'F11 Hf2 Na1 V1'
_cod_database_code               1532199
loop_
_symmetry_equiv_pos_as_xyz
x,y,z
-x,y,-z
-x,-y,-z
x,-y,z
x+1/2,y+1/2,z
-x+1/2,y+1/2,-z
-x+1/2,-y+1/2,-z
x+1/2,-y+1/2,z
loop_
_atom_site_label
_atom_site_type_symbol
_atom_site_fract_x
_atom_site_fract_y
_atom_site_fract_z
_atom_site_occupancy
_atom_site_U_iso_or_equiv
F4 F-1 0.26589 0 0.10889 1 0.0
Hf1 Hf+4 0.50282 0 0.2338 1 0.0
V1 V+2 0 0 0.5 1 0.0
F1 F-1 0 0.5 0.5 1 0.0
F5 F-1 0.01196 0.20947 0.30803 1 0.0
F2 F-1 0 0.33117 0 1 0.0
Na1 Na+1 0 0 0 1 0.0
F3 F-1 0.25288 0 0.64868 1 0.0
