#------------------------------------------------------------------------------
#$Date: 2018-09-27 07:13:35 +0300 (Thu, 27 Sep 2018) $
#$Revision: 211196 $
#$URL: file:///home/coder/svn-repositories/cod/cif/1/53/21/1532147.cif $
#------------------------------------------------------------------------------
#
# This file is available in the Crystallography Open Database (COD),
# http://www.crystallography.net/
#
# All data on this site have been placed in the public domain by the
# contributors.
#
data_1532147
loop_
_publ_author_name
'Valon, P.'
'Cousseins, J.C.'
'Fong, F.K.'
'Vedrine, A.'
'Gacon, J.C.'
'Boulon, G.'
_publ_section_title
;
 Synthesis of ternary fluorides Ba Ca Ln2 F10 Eu2+ luminescence in Ba Ca
 Lu2 F10
;
_journal_name_full               'Materials Research Bulletin'
_journal_page_first              43
_journal_page_last               48
_journal_volume                  11
_journal_year                    1976
_chemical_formula_sum            'Ba Ca Dy2 F10'
_space_group_IT_number           221
_symmetry_space_group_name_Hall  '-P 4 2 3'
_symmetry_space_group_name_H-M   'P m -3 m'
_cell_angle_alpha                90
_cell_angle_beta                 90
_cell_angle_gamma                90
_cell_formula_units_Z            1
_cell_length_a                   5.758
_cell_length_b                   5.758
_cell_length_c                   5.758
_cell_volume                     190.904
_citation_journal_id_ASTM        MRBUAC
_cod_data_source_file            Valon_MRBUAC_1976_1226.cif
_cod_data_source_block           Ba1Ca1Dy2F10
_cod_original_formula_sum        'Ba1 Ca1 Dy2 F10'
_cod_database_code               1532147
loop_
_symmetry_equiv_pos_as_xyz
x,y,z
-y,x,z
-x,-y,z
y,-x,z
x,-y,-z
y,x,-z
-x,y,-z
-y,-x,-z
z,x,y
-x,z,y
-z,-x,y
x,-z,y
z,-x,-y
x,z,-y
-z,x,-y
-x,-z,-y
y,z,x
y,-z,-x
z,y,-x
-y,z,-x
-z,-y,-x
-y,-z,x
z,-y,x
-z,y,x
-x,-y,-z
y,-x,-z
x,y,-z
-y,x,-z
-x,y,z
-y,-x,z
x,-y,z
y,x,z
-z,-x,-y
x,-z,-y
z,x,-y
-x,z,-y
-z,x,y
-x,-z,y
z,-x,y
x,z,y
-y,-z,-x
-y,z,x
-z,-y,x
y,-z,x
z,y,x
y,z,-x
-z,y,-x
z,-y,-x
loop_
_atom_site_label
_atom_site_type_symbol
_atom_site_fract_x
_atom_site_fract_y
_atom_site_fract_z
_atom_site_occupancy
_atom_site_U_iso_or_equiv
F2 F-1 0.5 0 0 1 0.0
F3 F-1 0.27 0.27 0.27 0.75 0.0
F1 F-1 0.5 0.5 0.5 1 0.0
Ca1 Ca+2 0 0.5 0.5 0.3333 0.0
Ba1 Ba+2 0 0 0 1 0.0
Dy1 Dy+3 0 0.5 0.5 0.6667 0.0
