#------------------------------------------------------------------------------
#$Date: 2015-09-18 23:51:09 +0300 (Fri, 18 Sep 2015) $
#$Revision: 157852 $
#$URL: svn://www.crystallography.net/cod/cif/1/53/21/1532190.cif $
#------------------------------------------------------------------------------
#
# This file is available in the Crystallography Open Database (COD),
# http://www.crystallography.net/
#
# All data on this site have been placed in the public domain by the
# contributors.
#
data_1532190
loop_
_publ_author_name
'Schmidt, R.'
'Kraus, M.'
'Mueller, B.G.'
_publ_section_title
;
 Neue Fluorozirconate und -hafnate mit V(2+) und Ti(2+)
;
_journal_name_full
'Zeitschrift fuer Anorganische und Allgemeine Chemie'
_journal_page_first              2344
_journal_page_last               2350
_journal_volume                  627
_journal_year                    2001
_chemical_formula_sum            'F3 Hf0.5 Ti0.5'
_chemical_name_systematic        'Ti0.5 Hf0.5 F3'
_space_group_IT_number           221
_symmetry_space_group_name_Hall  '-P 4 2 3'
_symmetry_space_group_name_H-M   'P m -3 m'
_cell_angle_alpha                90
_cell_angle_beta                 90
_cell_angle_gamma                90
_cell_formula_units_Z            1
_cell_length_a                   3.923
_cell_length_b                   3.923
_cell_length_c                   3.923
_cell_volume                     60.375
_citation_journal_id_ASTM        ZAACAB
_cod_data_source_file            Schmidt_ZAACAB_2001_41.cif
_cod_data_source_block           F3Hf0.5Ti0.5
_cod_original_cell_volume        60.37469
_cod_database_code               1532190
loop_
_symmetry_equiv_pos_as_xyz
x,y,z
-y,x,z
-x,-y,z
y,-x,z
x,-y,-z
y,x,-z
-x,y,-z
-y,-x,-z
z,x,y
-x,z,y
-z,-x,y
x,-z,y
z,-x,-y
x,z,-y
-z,x,-y
-x,-z,-y
y,z,x
y,-z,-x
z,y,-x
-y,z,-x
-z,-y,-x
-y,-z,x
z,-y,x
-z,y,x
-x,-y,-z
y,-x,-z
x,y,-z
-y,x,-z
-x,y,z
-y,-x,z
x,-y,z
y,x,z
-z,-x,-y
x,-z,-y
z,x,-y
-x,z,-y
-z,x,y
-x,-z,y
z,-x,y
x,z,y
-y,-z,-x
-y,z,x
-z,-y,x
y,-z,x
z,y,x
y,z,-x
-z,y,-x
z,-y,-x
loop_
_atom_site_label
_atom_site_type_symbol
_atom_site_fract_x
_atom_site_fract_y
_atom_site_fract_z
_atom_site_occupancy
_atom_site_U_iso_or_equiv
Ti1 Ti+2 0 0 0 0.5 0.0
F1 F-1 0.5 0 0 1 0.0
Hf1 Hf+4 0 0 0 0.5 0.0
