#------------------------------------------------------------------------------
#$Date: 2016-02-13 21:28:24 +0200 (Sat, 13 Feb 2016) $
#$Revision: 176429 $
#$URL: svn://www.crystallography.net/cod/cif/1/53/35/1533570.cif $
#------------------------------------------------------------------------------
#
# This file is available in the Crystallography Open Database (COD),
# http://www.crystallography.net/
#
# All data on this site have been placed in the public domain by the
# contributors.
#
data_1533570
loop_
_publ_author_name
'Grzechnik, A.'
'Gesland, J.Y.'
'Crichton, W.A.'
_publ_section_title
;
 Potassium triyttriumdecafluoride, K Y3 F10, synthesized at high pressures
 and high temperatures
;
_journal_name_full               'Solid State Sciences'
_journal_page_first              757
_journal_page_last               764
_journal_volume                  5
_journal_year                    2003
_chemical_formula_sum            'F10 K Y3'
_chemical_name_systematic        'K Y3 F10'
_space_group_IT_number           221
_symmetry_space_group_name_Hall  '-P 4 2 3'
_symmetry_space_group_name_H-M   'P m -3 m'
_cell_angle_alpha                90
_cell_angle_beta                 90
_cell_angle_gamma                90
_cell_formula_units_Z            1
_cell_length_a                   5.70485
_cell_length_b                   5.70485
_cell_length_c                   5.70485
_cell_volume                     185.666
_citation_journal_id_ASTM        SSSCFJ
_cod_data_source_file            Grzechnik_SSSCFJ_2003_1024.cif
_cod_data_source_block           F10K1Y3
_cod_original_cell_volume        185.6662
_cod_original_formula_sum        'F10 K1 Y3'
_cod_database_code               1533570
loop_
_symmetry_equiv_pos_as_xyz
x,y,z
-y,x,z
-x,-y,z
y,-x,z
x,-y,-z
y,x,-z
-x,y,-z
-y,-x,-z
z,x,y
-x,z,y
-z,-x,y
x,-z,y
z,-x,-y
x,z,-y
-z,x,-y
-x,-z,-y
y,z,x
y,-z,-x
z,y,-x
-y,z,-x
-z,-y,-x
-y,-z,x
z,-y,x
-z,y,x
-x,-y,-z
y,-x,-z
x,y,-z
-y,x,-z
-x,y,z
-y,-x,z
x,-y,z
y,x,z
-z,-x,-y
x,-z,-y
z,x,-y
-x,z,-y
-z,x,y
-x,-z,y
z,-x,y
x,z,y
-y,-z,-x
-y,z,x
-z,-y,x
y,-z,x
z,y,x
y,z,-x
-z,y,-x
z,-y,-x
loop_
_atom_site_label
_atom_site_type_symbol
_atom_site_fract_x
_atom_site_fract_y
_atom_site_fract_z
_atom_site_occupancy
_atom_site_U_iso_or_equiv
F1 F-1 0.731 0.731 0.731 0.5 0.0
K1 K+1 0 0 0 1 0.0
F2 F-1 0.5 0.8295 0.8295 0.5 0.0
Y1 Y+3 0 0.5 0.5 1 0.0
