#------------------------------------------------------------------------------
#$Date: 2016-02-13 21:28:24 +0200 (Sat, 13 Feb 2016) $
#$Revision: 176429 $
#$URL: svn://www.crystallography.net/cod/cif/1/53/42/1534285.cif $
#------------------------------------------------------------------------------
#
# This file is available in the Crystallography Open Database (COD),
# http://www.crystallography.net/
#
# All data on this site have been placed in the public domain by the
# contributors.
#
data_1534285
loop_
_publ_author_name
'Bode, H.'
'Brockmann, R.'
_publ_section_title
;
 Zur Kristallstruktur der Hexafluorogermanate
;
_journal_name_full
'Zeitschrift fuer Anorganische und Allgemeine Chemie'
_journal_page_first              173
_journal_page_last               178
_journal_volume                  269
_journal_year                    1952
_chemical_formula_sum            'F6 Ge Rb2'
_chemical_name_systematic        'Rb2 (Ge F6)'
_space_group_IT_number           186
_symmetry_space_group_name_Hall  'P 6c -2c'
_symmetry_space_group_name_H-M   'P 63 m c'
_cell_angle_alpha                90
_cell_angle_beta                 90
_cell_angle_gamma                120
_cell_formula_units_Z            2
_cell_length_a                   5.94
_cell_length_b                   5.94
_cell_length_c                   9.63
_cell_volume                     294.259
_citation_journal_id_ASTM        ZAACAB
_cod_data_source_file            Bode_ZAACAB_1952_886.cif
_cod_data_source_block           F6Ge1Rb2
_cod_original_formula_sum        'F6 Ge1 Rb2'
_cod_database_code               1534285
loop_
_symmetry_equiv_pos_as_xyz
x,y,z
x-y,x,z+1/2
-y,x-y,z
-x,-y,z+1/2
-x+y,-x,z
y,-x+y,z+1/2
y,x,z+1/2
-x+y,y,z
-x,-x+y,z+1/2
-y,-x,z
x-y,-y,z+1/2
x,x-y,z
loop_
_atom_site_label
_atom_site_type_symbol
_atom_site_fract_x
_atom_site_fract_y
_atom_site_fract_z
_atom_site_occupancy
_atom_site_U_iso_or_equiv
Rb2 Rb+1 0 0 0.61 1 0.0
F2 F-1 0.49 -0.49 0.15 1 0.0
Rb1 Rb+1 0.3333 0.6667 0.89 1 0.0
F1 F-1 0.18 -0.18 0.35 1 0.0
Ge1 Ge+4 0.3333 0.6667 0.25 1 0.0
