#------------------------------------------------------------------------------
#$Date: 2016-02-13 21:28:24 +0200 (Sat, 13 Feb 2016) $
#$Revision: 176429 $
#$URL: svn://www.crystallography.net/cod/cif/1/53/63/1536359.cif $
#------------------------------------------------------------------------------
#
# This file is available in the Crystallography Open Database (COD),
# http://www.crystallography.net/
#
# All data on this site have been placed in the public domain by the
# contributors.
#
data_1536359
loop_
_publ_author_name
'Weil, M.'
'Kubel, F.'
_publ_section_title
;
 Der Uebergang von isolierten dimeren (Al F4/1 F2/2)2 Gruppen aus
 kantenverknuepften Oktaedern zu unendlichen linearen (infty 1)(Al F4/1
 F2/2)-Ketten eckenverknuepfter Oktaeder in den tetragonalen Verbindungen
 (Sr, M) Al F5 (M = Ca, Ba) - der Einfluss des unterschiedlichen
 Substitutionsgrades von Sr durch Ba und Ca
;
_journal_name_full
'Zeitschrift fuer Anorganische und Allgemeine Chemie'
_journal_page_first              1053
_journal_page_last               1058
_journal_volume                  628
_journal_year                    2002
_chemical_formula_sum            'Al Ba0.31 Ca0.13 F5 Sr0.56'
_chemical_name_systematic        '(Ca0.13 Sr0.56 Ba0.31) (Al F5)'
_space_group_IT_number           87
_symmetry_space_group_name_Hall  '-I 4'
_symmetry_space_group_name_H-M   'I 4/m'
_cell_angle_alpha                90
_cell_angle_beta                 90
_cell_angle_gamma                90
_cell_formula_units_Z            16
_cell_length_a                   14.2315
_cell_length_b                   14.2315
_cell_length_c                   7.2033
_cell_volume                     1458.925
_citation_journal_id_ASTM        ZAACAB
_cod_data_source_file            Weil_ZAACAB_2002_447.cif
_cod_data_source_block           Al1Ba0.31Ca0.13F5Sr0.56
_cod_original_formula_sum        'Al1 Ba0.31 Ca0.13 F5 Sr0.56'
_cod_database_code               1536359
loop_
_symmetry_equiv_pos_as_xyz
x,y,z
-y,x,z
-x,-y,z
y,-x,z
-x,-y,-z
y,-x,-z
x,y,-z
-y,x,-z
x+1/2,y+1/2,z+1/2
-y+1/2,x+1/2,z+1/2
-x+1/2,-y+1/2,z+1/2
y+1/2,-x+1/2,z+1/2
-x+1/2,-y+1/2,-z+1/2
y+1/2,-x+1/2,-z+1/2
x+1/2,y+1/2,-z+1/2
-y+1/2,x+1/2,-z+1/2
loop_
_atom_site_label
_atom_site_type_symbol
_atom_site_fract_x
_atom_site_fract_y
_atom_site_fract_z
_atom_site_occupancy
_atom_site_U_iso_or_equiv
F6 F-1 0.2324 0.2537 0 1 0.0
Al3 Al+3 0 0.5 0 1 0.0
Al2 Al+3 0 0 0.2646 1 0.0
F10 F-1 0.028 0.029 0 0.25 0.0
F1 F-1 0 0.5 0.25 1 0.0
F4 F-1 0.28563 0.10243 0.1713 1 0.0
F9 F-1 0.4564 0.4821 0 0.25 0.0
Ba2 Ba+2 0.25664 0.42662 0 0.4 0.0
Sr1 Sr+2 0.05873 0.21835 0 0.768 0.0
Sr2 Sr+2 0.25664 0.42662 0 0.34 0.0
F3 F-1 0.0681 0.3937 0 1 0.0
F2 F-1 0.4414 0.1108 0 1 0.0
F8 F-1 0.1151 0.04 0.2869 0.5 0.0
Ba1 Ba+2 0.05873 0.21835 0 0.232 0.0
F5 F-1 0.1067 0.24858 0.3299 1 0.0
Al1 Al+3 0.33341 0.18041 0 1 0.0
Ca2 Ca+2 0.25664 0.42662 0 0.26 0.0
F7 F-1 0.1097 0.0406 0.1902 0.5 0.0
