#------------------------------------------------------------------------------
#$Date: 2016-02-13 21:28:24 +0200 (Sat, 13 Feb 2016) $
#$Revision: 176429 $
#$URL: svn://www.crystallography.net/cod/cif/1/53/89/1538920.cif $
#------------------------------------------------------------------------------
#
# This file is available in the Crystallography Open Database (COD),
# http://www.crystallography.net/
#
# All data on this site have been placed in the public domain by the
# contributors.
#
data_1538920
loop_
_publ_author_name
'Mueller, B.G.'
_publ_section_title
;
 Zur Kenntnis komplexer Fluoride mit Cu2+ und Pd2+: M Pt F6 (M=Pd, Cu) und
 Rb Cu Pd F5.
;
_journal_name_full
'Zeitschrift fuer Anorganische und Allgemeine Chemie'
_journal_page_first              79
_journal_page_last               84
_journal_volume                  556
_journal_year                    1988
_chemical_formula_sum            'F6 Pd Pt'
_chemical_name_systematic        'Pd Pt F6'
_space_group_IT_number           148
_symmetry_space_group_name_Hall  '-R 3'
_symmetry_space_group_name_H-M   'R -3 :H'
_cell_angle_alpha                90
_cell_angle_beta                 90
_cell_angle_gamma                120
_cell_formula_units_Z            3
_cell_length_a                   5.038
_cell_length_b                   5.038
_cell_length_c                   14.316
_cell_volume                     314.680
_citation_journal_id_ASTM        ZAACAB
_cod_data_source_file            Mueller_ZAACAB_1988_1052.cif
_cod_data_source_block           F6Pd1Pt1
_cod_original_cell_volume        314.6797
_cod_original_formula_sum        'F6 Pd1 Pt1'
_cod_database_code               1538920
loop_
_symmetry_equiv_pos_as_xyz
x,y,z
-y,x-y,z
-x+y,-x,z
-x,-y,-z
y,-x+y,-z
x-y,x,-z
x+2/3,y+1/3,z+1/3
-y+2/3,x-y+1/3,z+1/3
-x+y+2/3,-x+1/3,z+1/3
-x+2/3,-y+1/3,-z+1/3
y+2/3,-x+y+1/3,-z+1/3
x-y+2/3,x+1/3,-z+1/3
x+1/3,y+2/3,z+2/3
-y+1/3,x-y+2/3,z+2/3
-x+y+1/3,-x+2/3,z+2/3
-x+1/3,-y+2/3,-z+2/3
y+1/3,-x+y+2/3,-z+2/3
x-y+1/3,x+2/3,-z+2/3
loop_
_atom_site_label
_atom_site_type_symbol
_atom_site_fract_x
_atom_site_fract_y
_atom_site_fract_z
_atom_site_occupancy
_atom_site_U_iso_or_equiv
Pd1 Pd+2 0 0 0 1 0.0
Pt1 Pt+4 0 0 0.5 1 0.0
F1 F-1 0.6956 0.0077 0.5787 1 0.0
