#------------------------------------------------------------------------------
#$Date: 2016-02-13 21:28:24 +0200 (Sat, 13 Feb 2016) $
#$Revision: 176429 $
#$URL: svn://www.crystallography.net/cod/cif/1/53/97/1539700.cif $
#------------------------------------------------------------------------------
#
# This file is available in the Crystallography Open Database (COD),
# http://www.crystallography.net/
#
# All data on this site have been placed in the public domain by the
# contributors.
#
data_1539700
loop_
_publ_author_name
'Benner, G.'
'Mueller, B.G.'
_publ_section_title
;
 Zur Kenntnis binaerer Fluoride des Zr F4-Typs: Hf F4 und Th F4
;
_journal_name_full
'Zeitschrift fuer Anorganische und Allgemeine Chemie'
_journal_page_first              33
_journal_page_last               42
_journal_volume                  588
_journal_year                    1990
_chemical_formula_sum            'F4 Hf'
_chemical_name_systematic        'Hf F4'
_space_group_IT_number           15
_symmetry_space_group_name_Hall  '-C 2yc'
_symmetry_space_group_name_H-M   'C 1 2/c 1'
_cell_angle_alpha                90
_cell_angle_beta                 126.15
_cell_angle_gamma                90
_cell_formula_units_Z            12
_cell_length_a                   11.725
_cell_length_b                   9.869
_cell_length_c                   7.636
_cell_volume                     713.479
_citation_journal_id_ASTM        ZAACAB
_cod_data_source_file            Benner_ZAACAB_1990_1278.cif
_cod_data_source_block           F4Hf1
_cod_original_cell_volume        713.4791
_cod_original_formula_sum        'F4 Hf1'
_cod_database_code               1539700
loop_
_symmetry_equiv_pos_as_xyz
x,y,z
-x,y,-z+1/2
-x,-y,-z
x,-y,z-1/2
x+1/2,y+1/2,z
-x+1/2,y+1/2,-z+1/2
-x+1/2,-y+1/2,-z
x+1/2,-y+1/2,z-1/2
loop_
_atom_site_label
_atom_site_type_symbol
_atom_site_fract_x
_atom_site_fract_y
_atom_site_fract_z
_atom_site_occupancy
_atom_site_U_iso_or_equiv
F6 F-1 0.8857 0.7047 0.9287 1 0.0
F1 F-1 0.5 0.9066 0.25 1 0.0
F2 F-1 0.1178 0.6188 0.2818 1 0.0
Hf2 Hf+4 0 0.7857 0.25 1 0.0
F3 F-1 0.1269 0.8443 0.158 1 0.0
F5 F-1 0.8823 0.9475 0.0461 1 0.0
F7 F-1 0.2112 0.5279 0.1044 1 0.0
Hf1 Hf+4 0.2058 0.4287 0.3342 1 0.0
F4 F-1 0.25 0.75 0 1 0.0
