#------------------------------------------------------------------------------
#$Date: 2021-05-31 10:36:10 +0300 (Mon, 31 May 2021) $
#$Revision: 265624 $
#$URL: file:///home/coder/svn-repositories/cod/cif/1/56/29/1562977.cif $
#------------------------------------------------------------------------------
#
# This file is available in the Crystallography Open Database (COD),
# http://www.crystallography.net/
#
# All data on this site have been placed in the public domain by the
# contributors.
#
data_1562977
loop_
_publ_author_name
'Shirako, Y.'
'Shi, Y.G.'
'Aimi, A.'
'Mori, D.'
'Kojitani, H.'
'Yamaura, K.'
'Inaguma, Y.'
'Akaogi, M.'
_publ_section_title
;
 High-pressure stability relations, crystal structures, and physical
 properties of perovskite and post-perovskite of NaNiF3
;
_journal_name_full               'Journal of Solid State Chemistry'
_journal_page_first              167
_journal_page_last               174
_journal_paper_doi               10.1016/j.jssc.2012.03.004
_journal_volume                  191
_journal_year                    2012
_chemical_formula_sum            'F3 Na Ni'
_chemical_formula_weight         138.678
_space_group_IT_number           63
_space_group_name_Hall           '-C 2c 2'
_space_group_name_H-M_alt        'C m c m'
_symmetry_cell_setting           orthorhombic
_symmetry_Int_Tables_number      63
_symmetry_space_group_name_Hall  '-C 2c 2'
_symmetry_space_group_name_H-M   'C m c m'
_cell_angle_alpha                90
_cell_angle_beta                 90
_cell_angle_gamma                90
_cell_formula_units_Z            4
_cell_length_a                   3.02605(3)
_cell_length_b                   10.05790(9)
_cell_length_c                   7.40138(6)
_cell_volume                     225.266(4)
_computing_cell_refinement       'RIETAN-FP (Izumi and Momma, 2007)'
_computing_molecular_graphics    'VESTA (Momma and Izumi, 2008)'
_computing_structure_refinement  'RIETAN-FP (Izumi and Momma, 2007)'
_diffrn_ambient_temperature      300
_diffrn_radiation_type           synchrotron
_diffrn_radiation_wavelength     0.519730
_diffrn_source                   synchrotron
_exptl_absorpt_coefficient_mu    3.5186
_exptl_crystal_density_diffrn    4.0890
_exptl_crystal_density_method    'not measured'
_exptl_crystal_F_000             264.00
_pd_calc_method                  'Rietveld Refinement'
_pd_char_colour                  green
_pd_instr_location               ' ?'
_pd_meas_2theta_range_inc        0.0100
_pd_meas_2theta_range_max        74.0000
_pd_meas_2theta_range_min        3.0000
_pd_meas_number_of_points        7101
_pd_meas_scan_method             step
_pd_proc_2theta_range_inc        0.0100
_pd_proc_2theta_range_max        74.0000
_pd_proc_2theta_range_min        3.0000
_pd_proc_ls_background_function  'Legendre polynomials'
_pd_proc_ls_pref_orient_corr     ' ?'
_pd_proc_ls_profile_function     'split pseudo-Voigt function'
_pd_proc_ls_prof_R_factor        0.02885
_pd_proc_ls_prof_wR_expected     0.03754
_pd_proc_ls_prof_wR_factor       0.04054
_pd_spec_mounting                ' ?'
_pd_spec_mount_mode              transmission
_pd_spec_shape                   cylinder
_refine_diff_density_max         0.0
_refine_diff_density_min         0.0
_refine_ls_extinction_method     none
_refine_ls_goodness_of_fit_all   1.0800
_refine_ls_matrix_type           full
_refine_ls_number_constraints    0
_refine_ls_number_parameters     50
_refine_ls_number_restraints     0
_refine_ls_R_factor_all          0.01736
_refine_ls_R_Fsqd_factor         0.01736
_refine_ls_R_I_factor            0.02422
_refine_ls_shift/su_max          0.0
_refine_ls_weighting_details     1/<i>y</i>~i~
_refine_ls_weighting_scheme      sigma
_cod_data_source_file            JSSC-2012-191-167.cif
_cod_data_source_block           NaNiF3_pPv
_cod_original_cell_volume        225.266(3)
_cod_database_code               1562977
loop_
_symmetry_equiv_pos_site_id
_symmetry_equiv_pos_as_xyz
1 x,y,z
2 -x,-y,z+1/2
3 -x,y,-z+1/2
4 x,-y,-z
5 -x,-y,-z
6 x,y,-z+1/2
7 x,-y,z+1/2
8 -x,y,z
9 x+1/2,y+1/2,z
10 -x+1/2,-y+1/2,z+1/2
11 -x+1/2,y+1/2,-z+1/2
12 x+1/2,-y+1/2,-z
13 -x+1/2,-y+1/2,-z
14 x+1/2,y+1/2,-z+1/2
15 x+1/2,-y+1/2,z+1/2
16 -x+1/2,y+1/2,z
loop_
_atom_site_label
_atom_site_fract_x
_atom_site_fract_y
_atom_site_fract_z
_atom_site_occupancy
_atom_site_symmetry_multiplicity
_atom_site_Wyckoff_symbol
_atom_site_adp_type
_atom_site_U_iso_or_equiv
_atom_site_type_symbol
F1 0.5 0.4251(2) 0.25 1 4 c Uiso 0.0105(5) F
F2 0.5 0.1245(1) 0.0569(2) 1 8 f Uiso 0.0081(4) F
Na1 0 0.2558(2) 0.25 1 4 c Uiso 0.0156(4) Na
Ni 0 0 0 1 4 a Uiso 0.0061(1) Ni
loop_
_atom_type_symbol
_atom_type_description
_atom_type_scat_dispersion_real
_atom_type_scat_dispersion_imag
_atom_type_scat_source
F F- 0.0127 0.0128 'International Tables for Crystallography, Vol. C'
Ni Ni2+ 0.2420 0.6309 'International Tables for Crystallography, Vol. C'
Na Na+ 0.0042 0.0052 'International Tables for Crystallography, Vol. C'
loop_
_geom_angle_atom_site_label_1
_geom_angle_atom_site_label_2
_geom_angle_atom_site_label_3
_geom_angle
_geom_angle_site_symmetry_1
_geom_angle_site_symmetry_2
_geom_angle_site_symmetry_3
Ni F Ni 135.7(1) 1_555 . 2_555
F2 Ni F2 97.77(5) 1_555 . 1_555
F1 Ni F2 87.66(4) 10_554 . 1_555
loop_
_geom_bond_atom_site_label_1
_geom_bond_atom_site_label_2
_geom_bond_distance
_geom_bond_site_symmetry_1
_geom_bond_site_symmetry_2
F1 Ni 1.9978(7) . 9_555
F1 Ni 1.9978(7) . 10_555
F1 Na1 2.278(2) . 1_555
F1 Na1 2.278(2) . 1_655
F1 F2 2.775(1) . 12_455
F1 F2 2.775(1) . 10_555
F1 F2 2.775(1) . 10_655
F1 F2 2.775(1) . 12_555
F1 F2 2.890(2) . 9_555
F1 F2 2.890(2) . 11_655
F1 F2 2.890(2) . 11_555
F1 F2 2.890(2) . 9_455
F1 F1 3.0261 . 1_455
F1 F1 3.0261 . 1_655
F2 Ni 2.0083(8) . 1_555
F2 Ni 2.0083(8) . 1_655
F2 Na1 2.465(1) . 1_555
F2 Na1 2.465(1) . 1_655
F2 Na1 2.571(1) . 10_554
F2 F2 2.641(2) . 4_555
F2 F1 2.775(1) . 10_554
F2 F1 2.775(1) . 10_654
F2 F2 2.858(2) . 3_655
F2 F1 2.890(2) . 9_545
F2 F1 2.890(2) . 9_445
F2 F2 3.0261 . 1_455
F2 F2 3.0261 . 1_655
F2 F2 3.062(2) . 12_455
F2 F2 3.062(2) . 12_555
Na1 F1 2.278(2) . 1_555
Na1 F1 2.278(2) . 1_455
Na1 F2 2.465(1) . 1_555
Na1 F2 2.465(1) . 3_655
Na1 F2 2.465(1) . 3_555
Na1 F2 2.465(1) . 1_455
Na1 F2 2.571(1) . 12_455
Na1 F2 2.571(1) . 10_555
Na1 Na1 3.0261 . 1_455
Na1 Na1 3.0261 . 1_655
Ni F1 1.9978(7) . 10_554
Ni F1 1.9978(7) . 9_445
Ni F2 2.0083(8) . 1_555
Ni F2 2.0083(8) . 4_455
Ni F2 2.0083(8) . 4_555
Ni F2 2.0083(8) . 1_455
Ni Ni 3.0261 . 1_455
Ni Ni 3.0261 . 1_655
loop_
_pd_phase_id
_pd_phase_block_id
_pd_phase_mass_%
1 NaNiF3_pPv 85.24
2 NaF 14.76
