#------------------------------------------------------------------------------
#$Date: 2016-02-20 02:53:41 +0200 (Sat, 20 Feb 2016) $
#$Revision: 176768 $
#$URL: svn://www.crystallography.net/cod/cif/2/10/06/2100656.cif $
#------------------------------------------------------------------------------
#
# This file is available in the Crystallography Open Database (COD),
# http://www.crystallography.net/. The original data for this entry
# were provided by IUCr Journals, http://journals.iucr.org/.
#
# The file may be used within the scientific community so long as
# proper attribution is given to the journal article from which the
# data were obtained.
#
data_2100656
loop_
_publ_author_name
'J\/orgensen, Jens-Erik'
'Smith, R. I.'
_publ_section_title
;
 On the compression mechanism of FeF~3~
;
_journal_coeditor_code           AV5063
_journal_issue                   6
_journal_name_full               'Acta Crystallographica Section B'
_journal_page_first              987
_journal_page_last               992
_journal_paper_doi               10.1107/S0108768106030023
_journal_volume                  62
_journal_year                    2006
_chemical_formula_moiety         'Fe1 F3'
_chemical_formula_structural     'Fe1 F3'
_chemical_formula_sum            'F3 Fe'
_chemical_formula_weight         112.84
_chemical_name_common            'Iron Fluoride'
_chemical_name_systematic
;
Iron(III) fluoride
;
_space_group_IT_number           167
_symmetry_cell_setting           trigonal
_symmetry_space_group_name_Hall  '-R 3 2"c'
_symmetry_space_group_name_H-M   'R -3 c :H'
_cell_angle_alpha                90.0
_cell_angle_beta                 90.0
_cell_angle_gamma                120.0
_cell_formula_units_Z            6
_cell_length_a                   4.8400(4)
_cell_length_b                   4.84
_cell_length_c                   13.4413(19)
_cell_volume                     272.69(4)
_diffrn_radiation_probe          neutron
_diffrn_radiation_source         'ISIS spallation neutron source'
_diffrn_radiation_type           neutron
_cod_data_source_file            av5063.cif
_cod_data_source_block           FE37148_phase_1
_cod_depositor_comments
;
The following automatic conversions were performed:
'_geom_bond_publ_flag' value 'N' changed to 'n' according to
'/home/saulius/struct/CIF-dictionaries/cif_core.dic' dictionary named
'cif_core.dic' version 2.4.1 from 2010-06-29 (20
times).

'_geom_angle_publ_flag' value 'N' changed to 'n' according to
'/home/saulius/struct/CIF-dictionaries/cif_core.dic' dictionary named
'cif_core.dic' version 2.4.1 from 2010-06-29 (16 times).

Automatic conversion script
Id: cif_fix_enum 1527 2010-12-29 10:47:43Z saulius 

The following automatic conversions were performed:

'_geom_bond_publ_flag' value 'N' changed to 'n' according to
/home/saulius/struct/CIF-dictionaries/cif_core.dic dictionary named
'cif_core.dic' version 2.4.1 from 2010-06-29 (20
times).

'_geom_angle_publ_flag' value 'N' changed to 'n' according
to /home/saulius/struct/CIF-dictionaries/cif_core.dic dictionary
named 'cif_core.dic' version 2.4.1 from 2010-06-29 (16 times).

Automatic conversion script
Id: cif_fix_values 1715 2011-07-08 13:25:40Z adriana 
;
_cod_original_cell_volume        272.68(4)
_cod_original_sg_symbol_H-M      'R -3 c H'
_cod_database_code               2100656
loop_
_symmetry_equiv_pos_site_id
_symmetry_equiv_pos_as_xyz
1 +x,+y,+z
2 -y,x-y,+z
3 y-x,-x,+z
4 y-x,+y,+z+1/2
5 -y,-x,+z+1/2
6 +x,x-y,+z+1/2
-1 -x,-y,-z
-2 +y,y-x,-z
-3 x-y,+x,-z
-4 x-y,-y,-z+1/2
-5 +y,+x,-z+1/2
-6 -x,y-x,-z+1/2
101 +x+1/3,+y+2/3,+z+2/3
102 -y+1/3,x-y+2/3,+z+2/3
103 y-x+1/3,-x+2/3,+z+2/3
104 y-x+1/3,+y+2/3,+z+1/6
105 -y+1/3,-x+2/3,+z+1/6
106 +x+1/3,x-y+2/3,+z+1/6
-101 -x+2/3,-y+1/3,-z+1/3
-102 +y+2/3,y-x+1/3,-z+1/3
-103 x-y+2/3,+x+1/3,-z+1/3
-104 x-y+2/3,-y+1/3,-z+5/6
-105 +y+2/3,+x+1/3,-z+5/6
-106 -x+2/3,y-x+1/3,-z+5/6
201 +x+2/3,+y+1/3,+z+1/3
202 -y+2/3,x-y+1/3,+z+1/3
203 y-x+2/3,-x+1/3,+z+1/3
204 y-x+2/3,+y+1/3,+z+5/6
205 -y+2/3,-x+1/3,+z+5/6
206 +x+2/3,x-y+1/3,+z+5/6
-201 -x+1/3,-y+2/3,-z+2/3
-202 +y+1/3,y-x+2/3,-z+2/3
-203 x-y+1/3,+x+2/3,-z+2/3
-204 x-y+1/3,-y+2/3,-z+1/6
-205 +y+1/3,+x+2/3,-z+1/6
-206 -x+1/3,y-x+2/3,-z+1/6
loop_
_atom_site_type_symbol
_atom_site_label
_atom_site_fract_x
_atom_site_fract_y
_atom_site_fract_z
_atom_site_U_iso_or_equiv
_atom_site_thermal_displace_type
_atom_site_occupancy
Fe FE 0.0 0.0 0.0 0.0018(6) Uiso 1.0
F F 0.3592(7) 0.0 0.75 0.0034(6) Uiso 1.0
loop_
_atom_type_symbol
F_
Fe
loop_
_geom_angle_atom_site_label_1
_geom_angle_atom_site_label_2
_geom_angle_atom_site_label_3
_geom_angle_site_symmetry_1
_geom_angle_site_symmetry_3
_geom_angle
_geom_angle_publ_flag
F FE F 104_542 105_552 89.27(4) n
F FE F 104_542 106_442 89.27(4) n
F FE F 104_542 201_454 180.0 n
F FE F 104_542 202_444 90.73(4) n
F FE F 104_542 203_554 90.73(4) n
F FE F 105_552 106_442 89.27(4) n
F FE F 105_552 201_454 90.73(4) n
F FE F 105_552 202_444 179.972 n
F FE F 105_552 203_554 90.73(4) n
F FE F 106_442 201_454 90.73(4) n
F FE F 106_442 202_444 90.73(4) n
F FE F 106_442 203_554 180.0 n
F FE F 201_454 202_444 89.27(4) n
F FE F 201_454 203_554 89.27(4) n
F FE F 202_444 203_554 89.27(4) n
FE F FE 101_545 204_555 138.34(19) n
loop_
_geom_bond_atom_site_label_1
_geom_bond_atom_site_label_2
_geom_bond_site_symmetry_2
_geom_bond_distance
_geom_bond_publ_flag
FE F 104_544 1.9160(12) n
FE F 105_554 1.9160(12) n
FE F 106_444 1.9160(12) n
FE F 201_454 1.9160(12) n
FE F 202_444 1.9160(12) n
FE F 203_554 1.9160(12) n
F FE 101_545 1.9160(12) n
F FE 204_555 1.9160(12) n
F F 2_545 2.692(3) n
F F 2_555 3.011(6) n
F F 2_655 2.692(3) n
F F 3_555 3.011(6) n
F F 3_655 2.692(3) n
F F 3_665 2.692(3) n
F F 104_545 2.844(3) n
F F 105_555 2.7267(9) n
F F 106_545 2.7267(9) n
F F 204_554 2.844(3) n
F F 205_554 2.7267(9) n
F F 206_444 2.7267(9) n
