#------------------------------------------------------------------------------
#$Date: 2016-02-13 21:28:24 +0200 (Sat, 13 Feb 2016) $
#$Revision: 176429 $
#$URL: svn://www.crystallography.net/cod/cif/2/10/68/2106894.cif $
#------------------------------------------------------------------------------
#
# This file is available in the Crystallography Open Database (COD),
# http://www.crystallography.net/. The original data for this entry
# were provided by IUCr Journals, http://journals.iucr.org/.
#
# The file may be used within the scientific community so long as
# proper attribution is given to the journal article from which the
# data were obtained.
#
data_2106894
loop_
_publ_author_name
'Miyata, N.'
'Marumo, F.'
'Tanaka, K.'
_publ_section_title
;
 Electron density distribution in crystals of iron(II) potassium
 trifluoride
;
_journal_name_full               'Acta Crystallographica B (39,1983-)'
_journal_page_first              561
_journal_page_last               564
_journal_volume                  39
_journal_year                    1983
_chemical_formula_sum            'F3 Fe K'
_chemical_name_systematic        'Fe K F3'
_space_group_IT_number           221
_symmetry_space_group_name_Hall  '-P 4 2 3'
_symmetry_space_group_name_H-M   'P m -3 m'
_cell_angle_alpha                90
_cell_angle_beta                 90
_cell_angle_gamma                90
_cell_formula_units_Z            1
_cell_length_a                   4.1198
_cell_length_b                   4.1198
_cell_length_c                   4.1198
_cell_volume                     69.924
_citation_journal_id_ASTM        ASBSDK
_cod_data_source_file            Miyata_ASBSDK_1983_306.cif
_cod_data_source_block           F3Fe1K1
_cod_original_cell_volume        69.92435
_cod_original_formula_sum        'F3 Fe1 K1'
_cod_database_code               2106894
loop_
_symmetry_equiv_pos_as_xyz
x,y,z
-y,x,z
-x,-y,z
y,-x,z
x,-y,-z
y,x,-z
-x,y,-z
-y,-x,-z
z,x,y
-x,z,y
-z,-x,y
x,-z,y
z,-x,-y
x,z,-y
-z,x,-y
-x,-z,-y
y,z,x
y,-z,-x
z,y,-x
-y,z,-x
-z,-y,-x
-y,-z,x
z,-y,x
-z,y,x
-x,-y,-z
y,-x,-z
x,y,-z
-y,x,-z
-x,y,z
-y,-x,z
x,-y,z
y,x,z
-z,-x,-y
x,-z,-y
z,x,-y
-x,z,-y
-z,x,y
-x,-z,y
z,-x,y
x,z,y
-y,-z,-x
-y,z,x
-z,-y,x
y,-z,x
z,y,x
y,z,-x
-z,y,-x
z,-y,-x
loop_
_atom_site_label
_atom_site_type_symbol
_atom_site_fract_x
_atom_site_fract_y
_atom_site_fract_z
_atom_site_occupancy
_atom_site_U_iso_or_equiv
Fe1 Fe+2 0 0 0 1 0.0
K1 K+1 0.5 0.5 0.5 1 0.0
F1 F-1 0.5 0 0 1 0.0
