#------------------------------------------------------------------------------
#$Date: 2016-12-01 17:09:03 +0200 (Thu, 01 Dec 2016) $
#$Revision: 188806 $
#$URL: file:///home/coder/svn-repositories/cod/cif/3/50/00/3500050.cif $
#------------------------------------------------------------------------------
#
# This file is available in the Crystallography Open Database (COD),
# http://www.crystallography.net/
#
# All data on this site have been placed in the public domain by the
# contributors.
#
data_3500050
loop_
_publ_author_name
'Armel Le Bail'
_publ_section_title
;
 BaCuGaF7 fluoride glass recrystallizing at 500 C in the BaCuGFeF7
 structure type
;
_journal_name_full               'Personal communication to COD'
_journal_year                    2016
_chemical_compound_source
;
Fluoride glass of composition BaCuGaF7 recrystallized at 500 C
;
_chemical_formula_sum            'Ba Cu F7 Ga'
_chemical_formula_weight         403.585
_space_group_IT_number           15
_symmetry_cell_setting           monoclinic
_symmetry_Int_Tables_number      15
_symmetry_space_group_name_Hall  '-C 2yc'
_symmetry_space_group_name_H-M   'C 1 2/c 1'
_cell_angle_alpha                90.00000
_cell_angle_beta                 118.5511(16)
_cell_angle_gamma                90.00000
_cell_formula_units_Z            4
_cell_length_a                   10.6199(5)
_cell_length_b                   9.8809(4)
_cell_length_c                   5.6263(3)
_cell_measurement_temperature    295
_cell_volume                     518.59(4)
_computing_structure_refinement  FULLPROF
_diffrn_ambient_temperature      295
_diffrn_radiation_monochromator  graphite
_diffrn_radiation_probe          x-ray
_diffrn_radiation_type           CuK\a
_diffrn_radiation_wavelength     1.54184
_exptl_absorpt_coefficient_mu    70.303
_exptl_crystal_density_diffrn    5.169
_exptl_crystal_F_000             716
_geom_special_details
;
 Bond distances, angles etc. have been calculated using the
 rounded fractional coordinates. All su's are estimated
 from the variances of the (full) variance-covariance matrix.
 The cell esds are taken into account in the estimation of
 distances, angles and torsion angles
;
_pd_meas_2theta_range_inc        0.020000
_pd_meas_2theta_range_max        79.98000
_pd_meas_2theta_range_min        10.00000
_pd_meas_number_of_points        3500
_pd_proc_2theta_range_inc        0.020000
_pd_proc_2theta_range_max        80.0332
_pd_proc_2theta_range_min        10.0532
_pd_proc_ls_prof_R_factor        3.3665
_pd_proc_ls_prof_wR_expected     1.0781
_pd_proc_ls_prof_wR_factor       4.6224
_pd_proc_wavelength              1.540560
_refine_ls_number_parameters     28
_refine_ls_number_reflns         364
_refine_ls_number_restraints     0
_refine_ls_R_I_factor            4.0462
_iucr_refine_instructions_details
;
Fullprof .pcr file, modified to fit inside 80 columns
followed by the .dat file


COMM  BaCuGaF7 glass recrystallizing at 500 C in the BaCuFeF7 structure type
! Current global Chi2 (Bragg contrib.) =      19.36    
! Files => DAT-file: bacugaf7.dat,  PCR-file: bacugaf7
!Job Npr Nph Nba Nex Nsc Nor Dum Iwg Ilo Ias Res Ste Nre Cry Uni Cor Opt Aut
   0   5   1  12   9   0   1   1   0   0   1   0   0   0   0   0   0   0   0
!
!Ipr Ppl Ioc Mat Pcr Ls1 Ls2 Ls3 NLI Prf Ins Rpa Sym Hkl Fou Sho Ana
   0   0   1   0   2   0   4   0   0  -3   0  -1   1   0   2   1   1
!
! Lambda1  Lambda2    Ratio    Bkpos    Wdt    Cthm     muR   AsyLim   Rpolarz  2nd-muR -> Patt# 1
 1.540560 1.544390  0.53000   90.000 12.0000  0.7998  0.0000   90.00    0.0000  0.0000
!
!NCY  Eps  R_at  R_an  R_pr  R_gl     Thmin       Step       Thmax    PSD    Sent0
 30  0.01  0.30  0.30  0.30  0.60     10.0000   0.020000    79.9800   0.000   0.000
!
!2Theta/TOF/E(Kev)   Background  for Pattern#  1
        10.0446      7608.1162          0.00
        11.1830      7181.3418          0.00
        11.9196      6889.3384          0.00
        13.9286      6522.4619          0.00
        16.4732      6155.5859          0.00
        19.9554      5728.8110          0.00
        22.5000      5436.8076          0.00
        32.8125      4957.6221          0.00
        48.0134      4897.7236          0.00
        60.6696      4905.2114          0.00
        75.8705      4822.8516          0.00
        79.1518      4905.2114          0.00
! 
! Excluded regions (LowT  HighT) for Pattern#  1
       19.41       22.01
       22.71       24.24
       27.53       28.25
       28.90       29.84
       32.91       33.57
       35.37       35.97
       40.25       40.55
       44.12       44.70
       80.00      180.00
! 
!
      28    !Number of refined parameters
!
!  Zero    Code    SyCos    Code   SySin    Code  Lambda     Code MORE 
->Patt# 1
 -0.05324   21.0  0.00000    0.0  0.00000    0.0 0.000000    0.00   0
!------------------------------------------------------------------------
-------
!  Data for PHASE number:   1  ==> Current R_Bragg for Pattern#  1:     
4.05
!-------------------------------------------------------------------------
------
  "BaCuGaF7"
!
!Nat Dis Ang Pr1 Pr2 Pr3 Jbt Irf Isy Str Furth       ATZ    Nvk Npr More
   7   0   0 1.0 0.0 0.0   0   0   0   0   0         10.332   0   5   1
!
!Jvi Jdi Hel Sol Mom Ter  Brind   RMua    RMub    RMuc   Jtyp  Nsp_Ref 
Ph_Shift N_Domains
   2   3   0   0   0   0  1.0000  0.0000  0.0000  0.0000    0      0    
  0      0
!
! Max_dst(dist) (angles)  Bond-Valence Calc.
      3.5000    180.0000        BVS
!  N_cations   N_anions     Tolerance(%) / Name or cations/ and Anions
       3           1               80.00
BA+2 CU+2 GA+3
F-1 
!
C 2/C                    <--Space group symbol
!Atom   Typ       X        Y        Z     Biso       Occ     In Fin N_t Spc 
/Codes
Ba     BA+2    0.00000  0.31805  0.25000  1.57993   0.04000   0   0   0    1  
                  0.00   121.00     0.00   131.00      0.00
Cu     CU+2    0.31150  0.39496  0.12051  0.96389   0.04000   0   0   0    2  
                141.00   151.00   161.00   171.00      0.00
Ga     GA+3    0.31150  0.39496  0.12051  0.96389   0.04000   0   0   0    3  
                141.00   151.00   161.00   171.00      0.00
F1     F-1     0.00000  0.81879  0.25000  0.78256   0.04000   0   0   0    4  
                  0.00   181.00     0.00   191.00      0.00
F2     F-1     0.12665  0.45359  0.01503  0.78256   0.08000   0   0   0    4  
                201.00   211.00   221.00   191.00      0.00
F3     F-1     0.24804  0.21811  0.21855  0.78256   0.08000   0   0   0    4  
                231.00   241.00   251.00   191.00      0.00
F4     F-1     0.37007  0.55150  1.00211  0.78256   0.08000   0   0   0    4  
                261.00   271.00   281.00   191.00      0.00
!-------> Profile Parameters for Pattern #  1
!  Scale        Shape1      Bov      Str1      Str2      Str3   Strain-Model
 0.47084       0.83331   0.00000   0.00000   0.00000   0.00000       0
    11.00000    31.000     0.000     0.000     0.000     0.000
!       U         V          W           X          Y        GauSiz   LorSiz
 Size-Model
   0.082358  -0.008055   0.022098   0.000000   0.000000   0.000000   0.000000
    0
     51.000      0.000     41.000      0.000      0.000      0.000      0.000
!     a          b         c        alpha      beta       gamma      #Cell 
Info
  10.619949   9.880898   5.626324  90.000000 118.551056  90.000000   
   61.00000   71.00000   81.00000    0.00000   91.00000    0.00000
!  Pref1    Pref2      Asy1     Asy2     Asy3     Asy4  
  1.00000  0.00000 -0.00778  0.02699  0.00000  0.00000
     0.00     0.00   101.00   111.00     0.00     0.00
!  2Th1/TOF1    2Th2/TOF2  Pattern to plot
      10.000      79.980       1




Fullprof .dat file


      10.00     0.02    79.98
   7733.   7613.   7843.   7879.   7680.   7562.   7593.   7666.   7544.   7463.
   7412.   7633.   7336.   7489.   7507.   7611.   7469.   7519.   7525.   7893.
   7651.   7410.   7491.   7343.   7119.   7440.   7410.   7430.   7489.   7576.
   7359.   7420.   7351.   7446.   7347.   7383.   7499.   7330.   7414.   7284.
   7438.   7210.   7276.   7343.   7463.   7399.   7294.   7475.   7109.   7158.
   7265.   7290.   7330.   7420.   7400.   7121.   7211.   7308.   7310.   7231.
   7099.   7113.   7180.   7357.   7156.   6981.   7135.   6857.   6979.   7176.
   6906.   7152.   7080.   7107.   7001.   7172.   7215.   7160.   7121.   7058.
   7058.   7131.   6932.   7190.   7194.   7040.   7091.   7074.   7034.   6977.
   6993.   6830.   7263.   6958.   6900.   7154.   6881.   7099.   6845.   6989.
   6832.   6776.   6946.   7099.   6786.   6995.   6761.   6885.   6759.   6765.
   7119.   6847.   6788.   6908.   6682.   6906.   6965.   6926.   6847.   6741.
   6643.   6733.   6761.   6824.   7040.   6774.   6867.   6623.   6826.   6902.
   6731.   7148.   6662.   6735.   6761.   6952.   6794.   6979.   6757.   6977.
   6816.   7129.   6849.   6985.   6952.   7005.   7038.   6847.   7223.   7471.
   7458.   7519.   7465.   7143.   7282.   7022.   6721.   6818.   6656.   6706.
   6672.   6574.   6656.   6603.   6769.   6656.   6772.   6753.   6526.   6721.
   6518.   6572.   6648.   6503.   6426.   6700.   6400.   6568.   6475.   6424.
   6607.   6770.   6570.   6457.   6580.   6583.   6493.   6839.   6507.   6639.
   6418.   6583.   6314.   6440.   6446.   6568.   6725.   6684.   6719.   6394.
   6609.   6538.   6711.   6475.   6644.   6530.   6680.   6507.   6721.   6316.
   6613.   6343.   6591.   6471.   6365.   6400.   6469.   6593.   6568.   6515.
   6383.   6515.   6660.   6284.   6548.   6373.   6365.   6528.   6485.   6379.
   6322.   6418.   6355.   6548.   6507.   6444.   6434.   6298.   6526.   6217.
   6310.   6471.   6274.   6428.   6347.   6225.   6412.   6282.   6318.   6235.
   6520.   6477.   6292.   6286.   6497.   6223.   6442.   6125.   6278.   6320.
   6259.   6284.   6387.   6190.   6243.   6489.   6168.   6324.   6306.   6310.
   6211.   6257.   6328.   6247.   6341.   6308.   6131.   6182.   5955.   6290.
   6103.   6322.   6373.   6320.   6231.   6353.   6495.   6083.   6463.   6477.
   6263.   6202.   6255.   6304.   6148.   6414.   6396.   6265.   6111.   6188.
   6312.   6337.   6203.   6215.   6085.   6117.   6316.   6259.   6050.   6034.
   6131.   6235.   6278.   6231.   6259.   6554.   6099.   6119.   6286.   6196.
   6076.   6278.   6302.   6115.   5942.   6129.   6046.   5934.   6129.   6013.
   6290.   6040.   6072.   6361.   6009.   6085.   6129.   6085.   6229.   6007.
   6139.   6225.   6079.   6257.   6148.   6247.   6050.   6150.   5920.   6115.
   5963.   6097.   6205.   6125.   6140.   6083.   6093.   6178.   6186.   6454.
   6166.   6211.   6306.   6140.   6060.   6024.   6077.   6213.   5951.   6115.
   6026.   6087.   6119.   6166.   6158.   6203.   6022.   6335.   6383.   6237.
   6371.   6696.   6727.   6981.   7036.   7078.   7296.   7227.   7365.   7426.
   7749.   8219.   8436.   9257.   9556.  10255.  10259.  10090.   9783.   8964.
   8615.   8251.   8216.   8322.   8584.   8877.   9076.   8952.   8690.   8107.
   7617.   7245.   6845.   6544.   6463.   6152.   6046.   5987.   6077.   5871.
   6009.   6113.   6013.   6184.   6066.   5790.   5938.   6227.   6030.   6076.
   6129.   6278.   6131.   6072.   6076.   5957.   6200.   6142.   6245.   6091.
   5839.   6231.   5969.   6367.   6274.   6511.   6414.   6950.   6715.   6981.
   7194.   6780.   6709.   6562.   6357.   6483.   6032.   6137.   5883.   5999.
   5839.   5707.   5745.   5814.   5794.   5788.   5827.   5861.   5788.   5723.
   5731.   5686.   5737.   5959.   5741.   5688.   5698.   6062.   6020.   6007.
   6062.   6079.   6227.   6300.   6203.   6322.   6717.   6524.   6335.   6231.
   6263.   6109.   5906.   6109.   5985.   5890.   5788.   5798.   5607.   5761.
   5865.   5625.   5812.   5774.   5932.   5987.   5536.   5670.   5745.   5719.
   5599.   5615.   5640.   5449.   5739.   5798.   5936.   5790.   5863.   5741.
   5784.   5806.   5682.   5522.   5719.   5735.   5690.   5705.   5825.   5755.
   5831.   5694.   5824.   5670.   5644.   5631.   5686.   5812.   5735.   5636.
   5605.   5512.   5635.   5701.   5636.   5747.   5774.   5822.   5621.   5772.
   5859.   5961.   5806.   5971.   5991.   6215.   6093.   6097.   6142.   6339.
   6178.   6207.   6066.   6278.   6034.   5989.   6013.   5914.   5835.   5833.
   5922.   6013.   6040.   6005.   6038.   5981.   5991.   5902.   5717.   5865.
   5682.   5613.   5629.   5694.   5369.   5739.   5538.   5524.   5591.   5719.
   5713.   5703.   5731.   5558.   5676.   5633.   5501.   5499.   5631.   5497.
   5434.   5664.   5638.   5585.   5310.   5686.   5475.   5483.   5505.   5599.
   5595.   5386.   5518.   5300.   5597.   5595.   5568.   5385.   5469.   5497.
   5398.   5501.   5552.   5583.   5383.   5497.   5339.   5479.   5481.   5554.
   5457.   5587.   5487.   5642.   5575.   5538.   5316.   5514.   5550.   5300.
   5552.   5566.   5627.   5503.   5436.   5359.   5398.   5572.   5680.   5638.
   5625.   5853.   5682.   5818.   5989.   6164.   6074.   6481.   6605.   6770.
   6776.   6727.   6879.   6739.   6509.   6209.   6101.   6235.   5843.   5987.
   5749.   5784.   5662.   5680.   5847.   5829.   5638.   5753.   5841.   5896.
   6101.   6068.   6103.   6231.   6215.   6213.   6398.   6276.   6465.   6426.
   6493.   6623.   6511.   6652.   6896.   6906.   7042.   6794.   6676.   6469.
   6434.   6168.   6247.   5985.   6131.   5959.   5790.   5940.   5957.   5743.
   5997.   5839.   6079.   5928.   6018.   5820.   5902.   6062.   6054.   6146.
   6135.   6186.   6562.   6680.   6891.   6981.   6989.   7003.   7166.   7314.
   7154.   6963.   7042.   7070.   7087.   7273.   7251.   7296.   7361.   7473.
   7611.   7710.   7836.   8344.   8373.   8552.   8794.   9092.   9515.  10161.
  10230.  11068.  11289.  11879.  12228.  12767.  13403.  14325.  15242.  16624.
  17961.  19122.  21105.  22881.  25310.  28777.  33307.  40336.  50051.  63242.
  77470.  90343.  97138.  99000.  96128.  88595.  76521.  65577.  56485.  50693.
  49071.  50278.  54270.  57188.  58724.  57387.  54268.  48382.  41743.  35451.
  28769.  23755.  19774.  17228.  15073.  13941.  12970.  12498.  12521.  12885.
  13598.  14638.  16346.  19122.  21656.  25365.  29096.  31966.  34713.  36451.
  36735.  35250.  33343.  29854.  26375.  22150.  18242.  15203.  13068.  11198.
   9824.   9111.   8517.   8084.   7946.   7952.   7784.   7586.   7737.   7652.
   7708.   7932.   8143.   8306.   8495.   8796.   9125.   9889.  10448.  11094.
  12379.  13330.  14195.  15856.  17886.  20656.  23979.  29116.  36085.  44604.
  55873.  66577.  72849.  75418.  73176.  66957.  58572.  47393.  36678.  28777.
  21753.  17636.  14496.  12692.  11198.  10407.   9728.   9422.   8812.   8609.
   8218.   8032.   7979.   7763.   7790.   7694.   7804.   7696.   8013.   8401.
   8204.   8832.   9115.   9448.   9871.   9544.   9411.   9357.   8779.   8349.
   8139.   8003.   7676.   7692.   7802.   7849.   7603.   7684.   7416.   7467.
   7210.   7048.   7034.   7198.   6796.   6849.   6952.   7007.   7154.   7198.
   6910.   7154.   6865.   7148.   6593.   6837.   6652.   6662.   6574.   6706.
   6761.   6995.   7247.   7588.   7834.   7985.   8568.   8720.   9426.  10434.
  11383.  12681.  14390.  15890.  16929.  17230.  16644.  15596.  14299.  12878.
  11732.  10556.   9718.   9290.   8889.   9310.   9424.   9737.   9529.   9911.
   9728.   9639.   9294.   8928.   8399.   7765.   7601.   6989.   6690.   6420.
   6278.   6111.   5948.   5877.   5888.   6003.   5908.   5595.   5635.   5794.
   5690.   5729.   5928.   5904.   6020.   6125.   6076.   6351.   6209.   6457.
   6700.   6979.   6997.   7647.   7822.   7946.   8338.   8221.   8491.   8446.
   8509.   8641.   8670.   9127.   9814.  10389.  11679.  13492.  16018.  18994.
  22648.  27643.  32413.  35996.  37745.  37036.  35469.  31620.  27251.  22398.
  17829.  14327.  11704.  10192.   9007.   7948.   7213.   7024.   6855.   6540.
   6081.   6473.   6176.   6203.   6034.   6014.   6014.   5753.   5711.   5749.
   5774.   5707.   5668.   5572.   5883.   5463.   5721.   5469.   5465.   5505.
   5652.   5888.   5566.   5416.   5593.   5507.   5820.   5794.   5757.   5839.
   5737.   5953.   6137.   6205.   6237.   6489.   6733.   6895.   7129.   7353.
   8129.   8221.   9084.   9802.  10942.  12498.  14659.  17211.  20843.  25099.
  28346.  30714.  31224.  30362.  28208.  25639.  23013.  19593.  17287.  15045.
  13874.  13031.  12970.  13700.  14868.  16768.  19650.  22522.  26042.  29346.
  31317.  32209.  32226.  29789.  27747.  24365.  21058.  18008.  14911.  13208.
  11314.   9978.   8881.   8080.   7652.   7141.   6959.   6459.   6274.   6137.
   6127.   6005.   5678.   5918.   5668.   5530.   5560.   5396.   5312.   5339.
   5339.   5241.   5278.   5225.   5133.   5217.   5215.   5062.   5184.   5133.
   5089.   5077.   5107.   5005.   4945.   5233.   5077.   5152.   5022.   5018.
   4839.   4928.   5022.   5005.   4796.   4900.   4993.   4936.   4928.   5180.
   4949.   5142.   5142.   5188.   5085.   5184.   5262.   5390.   5485.   5644.
   5833.   6056.   6089.   6452.   6385.   6278.   6164.   5940.   5814.   5833.
   5733.   5416.   5544.   5278.   5379.   5221.   5251.   5308.   5371.   5280.
   5377.   5381.   5420.   5532.   5465.   5552.   5599.   5668.   5890.   5951.
   5985.   6225.   6396.   6790.   7125.   7899.   8184.   9172.   9233.   9416.
   9294.   9277.   8970.   8674.   7808.   7434.   6832.   6361.   6146.   5725.
   5416.   5231.   5404.   5152.   5264.   5101.   5024.   4961.   5091.   5117.
   4940.   5129.   4963.   4875.   4918.   5068.   4908.   4945.   5010.   4977.
   4904.   5081.   5160.   4991.   5192.   5331.   5203.   5349.   5142.   5302.
   5310.   5747.   5733.   5603.   5707.   5985.   6257.   6741.   7501.   7877.
   8664.   9245.   9470.  10001.   9842.   9751.   9377.   8812.   8072.   7304.
   7032.   6599.   6333.   6257.   5938.   5818.   5869.   5827.   5577.   5888.
   5800.   5993.   5892.   5875.   5906.   6160.   6048.   5924.   6140.   6308.
   6247.   6052.   6066.   6144.   6060.   6040.   6235.   6160.   5948.   5951.
   5723.   5768.   5509.   5721.   5524.   5674.   5444.   5526.   5572.   5487.
   5733.   5757.   5829.   5816.   6060.   6111.   6381.   6619.   6981.   7349.
   7883.   8871.   9791.  10424.  11293.  11706.  11818.  11306.  10968.  10243.
   9836.   8871.   8357.   7558.   7253.   6902.   6377.   6280.   6231.   6105.
   6107.   5825.   6036.   6400.   6438.   6438.   7001.   6885.   7082.   7133.
   6906.   6940.   7011.   7084.   7210.   7355.   7011.   7245.   7099.   6922.
   6902.   6550.   6353.   6207.   6011.   5961.   5727.   5656.   5575.   5552.
   5536.   5432.   5707.   5642.   5719.   5969.   5902.   6286.   6442.   6717.
   7215.   7855.   8324.   8879.   9399.   9050.   9355.   9035.   8479.   7995.
   7546.   7131.   6646.   6034.   5946.   5800.   5463.   5581.   5184.   5607.
   5284.   5442.   5481.   5294.   5499.   5522.   5422.   5573.   5833.   6038.
   5977.   6150.   6518.   6475.   6753.   6658.   6578.   6526.   6920.   7280.
   7735.   8479.   8954.  10228.  10930.  11578.  11574.  12159.  11907.  11196.
  10834.  10310.  10017.  10245.   9913.  10318.  10645.  10836.  10718.  10576.
  10174.  10190.   9391.   8983.   8747.   8282.   8003.   7952.   7570.   7556.
   7406.   7231.   7145.   6841.   6832.   6765.   6711.   6652.   6534.   6389.
   6387.   6239.   6013.   6062.   5825.   5729.   5792.   5725.   5932.   5975.
   5595.   5879.   5857.   5741.   5804.   5792.   5680.   5749.   5564.   5662.
   5780.   5786.   5585.   5678.   5770.   6044.   6066.   6054.   6473.   6392.
   6839.   7188.   7625.   8617.   9741.  10986.  12937.  15110.  17262.  19274.
  20823.  20943.  20571.  19989.  18736.  16809.  15504.  13437.  11852.  10602.
   8920.   8054.   7747.   7150.   6991.   6633.   6792.   6682.   6704.   6891.
   7080.   7113.   7257.   7582.   7414.   7798.   7899.   8219.   8062.   8095.
   8206.   8194.   8192.   8155.   8509.   8513.   8775.   9074.   9290.   9983.
  10554.  11570.  12921.  15457.  18796.  21825.  24977.  28480.  29915.  30584.
  30234.  28974.  27671.  25310.  23119.  20845.  18045.  16002.  14740.  13399.
  12956.  12846.  13061.  13582.  14892.  16734.  18729.  22266.  26499.  31425.
  35534.  39698.  41052.  41196.  39487.  38107.  34630.  31541.  27830.  24172.
  20672.  17490.  14992.  13360.  11984.  10962.  10119.   9763.   9265.   8989.
   8574.   8454.   7908.   7771.   7495.   7643.   7408.   7462.   7365.   7332.
   7395.   7304.   7493.   8054.   8005.   8456.   9263.  10139.  11222.  11950.
  12779.  12629.  12472.  12092.  11545.  10938.  10253.   9745.   8712.   8062.
   7601.   7217.   7290.   7034.   6902.   6830.   6979.   6818.   7060.   7011.
   7180.   7190.   7475.   8019.   8255.   9149.   9781.  10671.  11586.  12169.
  12661.  13439.  13913.  14653.  15514.  16573.  18471.  20235.  23227.  25286.
  26899.  27482.  27137.  27106.  26619.  26121.  25359.  24296.  23471.  22448.
  21507.  20294.  19193.  18020.  16982.  15388.  14311.  13303.  11740.  11194.
  10456.   9357.   8422.   7777.   7491.   7087.   6690.   6662.   6597.   6450.
   6473.   6194.   6245.   6247.   6406.   6361.   6444.   6597.   6729.   6751.
   6820.   7219.   7296.   7621.   8027.   8462.   9424.  10454.  11375.  12137.
  12488.  12742.  12791.  12446.  11968.  11157.  10237.   9607.   9328.   8318.
   7796.   7074.   7056.   6473.   6454.   6542.   6442.   6676.   6593.   6550.
   6802.   6936.   6877.   6674.   6641.   6495.   6595.   6385.   6111.   6180.
   6032.   5853.   5709.   5912.   5540.   5575.   5408.   5532.   5579.   5442.
   5487.   5670.   5448.   5390.   5483.   5554.   5601.   5414.   5322.   5318.
   5174.   5446.   5562.   5375.   5554.   5424.   5327.   5459.   5215.   5509.
   5398.   5381.   5274.   5322.   5203.   5406.   5046.   5129.   5339.   5375.
   5174.   5064.   5329.   5180.   5231.   5438.   5540.   5357.   5536.   5737.
   5709.   5516.   5615.   5597.   5694.   6014.   6190.   6328.   6958.   7412.
   7739.   8440.   8761.   8582.   8779.   8324.   8137.   8029.   7619.   7422.
   6800.   6727.   6129.   5827.   5629.   5475.   5487.   5257.   5054.   5280.
   5255.   5353.   5233.   4888.   5129.   5018.   5166.   5154.   5093.   5123.
   5079.   5127.   5367.   5148.   5278.   5117.   5138.   5144.   5012.   5101.
   4985.   5099.   4977.   5197.   5083.   5127.   5062.   4920.   5001.   5066.
   5192.   5144.   5241.   5294.   5390.   5560.   5839.   5904.   6194.   6461.
   7038.   8117.   8881.   9877.  10808.  11430.  12242.  12068.  11753.  11651.
  11251.  10799.   9966.   9450.   8796.   7849.   7304.   6700.   6154.   6020.
   5654.   5579.   5554.   5318.   5465.   5347.   5117.   5142.   5164.   5154.
   5268.   5345.   5420.   5394.   5325.   5343.   5426.   5367.   5386.   5390.
   5585.   5365.   5534.   5495.   5331.   5341.   5247.   5276.   5136.   5022.
   5127.   5085.   4953.   4772.   5008.   4965.   4967.   5038.   5071.   5018.
   4991.   4841.   4947.   5308.   4898.   4910.   5007.   5064.   4963.   4877.
   4947.   5101.   5010.   5010.   5201.   5133.   5162.   5322.   5178.   5381.
   5290.   5420.   5361.   5599.   5438.   5540.   5552.   5737.   5611.   5633.
   5861.   5723.   5751.   6001.   6107.   6146.   6430.   6392.   6650.   6810.
   6643.   7117.   7160.   7387.   7525.   8068.   8424.   9023.   9783.  10828.
  11151.  11753.  12509.  12960.  13783.  14474.  15508.  16404.  16553.  17118.
  16051.  15372.  14659.  13864.  13106.  12462.  11730.  10797.  10291.   9885.
   9147.   8820.   8678.   8582.   8210.   8155.   7865.   7704.   7737.   7920.
   7698.   7727.   7682.   7560.   7550.   7434.   6959.   6926.   6796.   6861.
   6717.   6767.   6515.   6583.   6383.   6202.   6302.   6227.   6066.   6013.
   5885.   5898.   6140.   6079.   6221.   6217.   6101.   6172.   6505.   6337.
   6566.   6881.   7290.   7853.   8507.   9562.  10009.  11080.  11497.  11988.
  12159.  11915.  11702.  11612.  11198.  10799.  11141.  10653.  10395.  10824.
  11198.  11608.  11686.  11452.  11031.  10688.  10830.  10127.   9826.   9474.
   8897.   8324.   7757.   7247.   6975.   6469.   6235.   5847.   5650.   5859.
   5530.   5408.   5432.   5619.   5375.   5428.   5696.   5631.   5528.   5770.
   5660.   5725.   6188.   6310.   6654.   6668.   6772.   6891.   6956.   7017.
   6891.   6784.   6765.   6550.   6593.   6467.   6333.   6034.   6140.   6113.
   6142.   5987.   6020.   5788.   5971.   5932.   5814.   5654.   5965.   5682.
   5918.   5749.   5491.   5629.   5481.   5690.   5666.   5613.   5829.   5558.
   5723.   5662.   5761.   5692.   5853.   6058.   6215.   5983.   6548.   6765.
   7294.   7989.   8127.   8727.   9600.  10741.  11671.  12787.  13299.  14275.
  14901.  15915.  16717.  17949.  19138.  20550.  21918.  22625.  23574.  23410.
  22749.  22365.  21223.  20313.  19229.  18425.  17087.  15921.  14921.  13797.
  13011.  12072.  11251.  11135.  10590.  10360.  10808.  10590.  10517.  10921.
  10606.  10360.   9944.   9932.   9696.   9832.   9458.   9334.   9200.   8720.
   8621.   8399.   8196.   7649.   7649.   7497.   7408.   7273.   7030.   6922.
   6828.   6694.   6434.   6623.   6410.   6644.   6546.   6593.   6650.   6686.
   6867.   7087.   7334.   7554.   7692.   8149.   8800.   9206.   9495.  10204.
  10381.  10608.  10665.  10271.  10235.  10393.  10519.  10560.  10651.  11104.
  11397.  12435.  12730.  12878.  12716.  12521.  12179.  11375.  11222.  10594.
  10222.   9920.   9271.   8993.   8088.   8101.   7324.   7284.   6733.   6904.
   6837.   6928.   7044.   7280.   7623.   7788.   8444.   8942.   9611.  10190.
  10119.  10167.  10013.   9706.   9623.   9298.   8974.   8629.   8247.   8042.
   7582.   7326.   6896.   6503.   6534.   6103.   6392.   6194.   6320.   6079.
   6044.   5881.   5841.   5918.   5993.   6028.   5912.   5948.   5902.   6074.
   6050.   6044.   5973.   6115.   6174.   6300.   6337.   6215.   6485.   6351.
   6513.   6609.   6434.   6524.   6717.   6410.   6542.   6853.   6518.   6560.
   6477.   6709.   6853.   7028.   7306.   7643.   7715.   8237.   8558.   9444.
  10578.  11621.  13179.  14819.  16776.  18445.  19244.  20185.  19780.  19231.
  18211.  17211.  16656.  15716.  14972.  13693.  12437.  11389.  10592.   9757.
   8863.   8143.   7662.   7332.   7290.   7467.   7450.   7357.   7641.   7515.
   7899.   7678.   7942.   7792.   7962.   7828.   7719.   7885.   7682.   7641.
   7491.   7192.   7170.   6948.   6778.   6668.   6532.   6127.   6125.   6324.
   5825.   5930.   5601.   5662.   5749.   5388.   5394.   5402.   5426.   5174.
   5416.   5353.   5408.   5469.   5501.   5485.   5664.   5761.   5568.   5703.
   5916.   5999.   6241.   6599.   6509.   6936.   7444.   8345.   9062.   9625.
  11098.  11590.  12029.  11903.  11602.  11529.  10940.  10556.  10249.   9550.
   9566.   8926.   8570.   7794.   7190.   6808.   6389.   6278.   5790.   5869.
   5575.   5412.   5186.   5536.   5255.   5310.   5430.   5040.   5172.   5174.
   5369.   5318.   5251.   5394.   5359.   5253.   5493.   5469.   5459.   5432.
   5672.   5347.   5449.   5503.   5512.   5412.   5491.   5282.   5235.   5205.
   5121.   5345.   5172.   5339.   5105.   5146.   5184.   5101.   5182.   5014.
   5026.   5001.   4920.   5050.   5083.   5054.   4890.   4973.   4991.   4902.
   5064.   5075.   5068.   5052.   5148.   5235.   5239.   5310.   5597.   5398.
   5520.   5585.   5751.   6020.   5883.   6089.   5930.   6158.   6351.   6422.
   6832.   7198.   7450.   7920.   8769.   9348.  10401.  11098.  11679.  12370.
  12326.  12442.  12385.  12397.  11580.  11074.  10767.  10228.   9818.   9381.
   9084.   8322.   8007.   7428.   7127.   6770.   6379.   6192.   6170.   5906.
   5829.   5922.   5652.   5725.   5556.   5698.   5424.   5383.   5357.   5335.
   5550.   5146.   5079.   5111.   5089.   5010.   5070.   4855.   4981.   5028.
   5010.   5188.   5093.   5174.   5018.   4877.   5034.   5081.   5134.   5038.
   5050.   5221.   5134.   5245.   5184.   5105.   5146.   5259.   5192.   5077.
   5148.   5121.   5278.   5077.   4942.   4922.   4914.   5007.   4969.   4959.
   5048.   4812.   5129.   4955.   4772.   5070.   4894.   5140.   5087.   5247.
   4975.   5209.   5247.   5231.   5635.   5591.   5601.   5776.   5926.   6026.
   5843.   6013.   5924.   5776.   5698.   5776.   5650.   5575.   5477.   5491.
   5320.   5493.   5390.   5430.   5272.   5390.   5314.   5385.   5432.   5449.
   5418.   5540.   5686.   5257.   5491.   5199.   5455.   5451.   5310.   5339.
   5512.   5644.   5473.   5585.   5648.   5662.   5603.   5503.   5784.   5727.
   5747.   5930.   5822.   5822.   5892.   5940.   6227.   6196.   6172.   6359.
   6763.   6867.   7121.   7158.   7727.   7771.   8030.   8131.   8430.   8298.
   8548.   8340.   8249.   8253.   7912.   7727.   7605.   7519.   7204.   7306.
   6782.   6585.   6326.   6422.   5928.   5989.   5751.   5806.   5501.   5511.
   5511.   5146.   5131.   5168.   5217.   5030.   5235.   5288.   5164.   5251.
   5215.   5396.   5320.   5463.   5298.   5526.   5650.   5558.   5798.   5416.
   5790.   5597.   5829.   5690.   5731.   5684.   5806.   5965.   6058.   6221.
   6434.   6828.   7190.   7420.   7442.   7790.   7838.   7733.   7804.   8082.
   7743.   7597.   7723.   7562.   7418.   7481.   7306.   7133.   7186.   6993.
   7019.   6767.   6652.   6776.   6513.   6469.   6200.   6203.   6107.   6133.
   5934.   5814.   5703.   5509.   5428.   5363.   5483.   5288.   5070.   5314.
   5066.   5251.   5239.   5205.   5188.   5339.   5416.   5444.   5408.   5613.
   5556.   5507.   5617.   5570.   5678.   5560.   5583.   5792.   5794.   5869.
   5822.   5707.   5636.   5774.   5672.   5995.   5845.   6054.   5857.   5918.
   5914.   5855.   5812.   5888.   6016.   5731.   5894.   5853.   5792.   5715.
   5827.   5920.   5853.   5715.   5526.   5749.   5453.   5558.   5619.   5847.
   5613.   5922.   5676.   5879.   5644.   5764.   6150.   6481.   6548.   6515.
   6702.   6784.   6932.   6946.   7213.   7156.   7182.   7578.   7719.   8064.
   8296.   8686.   9586.  10052.  11043.  11448.  11623.  11948.  11728.  11602.
  10913.  10371.  10428.  10127.  10048.   9633.   9166.   9153.   8379.   8149.
   7582.   7237.   6956.   6621.   6113.   6066.   6046.   5924.   6089.   5944.
   5871.   5928.   5800.   5812.   5829.   5902.   5642.   5713.   6158.   6146.
   6296.   6121.   6219.   6485.   6542.   6558.   6296.   6560.   6501.   6457.
   6556.   6977.   6893.   7139.   7349.   7387.   7586.   7790.   7806.   7840.
   8060.   8540.   8741.   9208.   9416.   9665.  10676.  10948.  10879.  11047.
  10598.  10080.  10190.   9440.   9241.   9281.   8962.   8686.   8353.   8044.
   7904.   7402.   7180.   6885.   6540.   6721.   6550.   6467.   6406.   6263.
   6278.   6097.   6099.   6221.   6125.   6133.   6304.   6139.   6345.   6202.
   6434.   6560.   6595.   6715.   6991.   6900.   7284.   7483.   7532.   7243.
   7158.   7064.   7003.   7044.   6822.   6763.   6910.   6832.   6583.   6552.
   6747.   6743.   6607.   6936.   6857.   6692.   7042.   6828.   7292.   7406.
   7893.   8282.   9021.   9233.   9995.  10613.  11362.  11797.  12328.  12720.
  13068.  12785.  12962.  12858.  12374.  12316.  11940.  11541.  11631.  11324.
  10747.  10302.  10039.   9672.   9525.   9048.   8517.   8552.   8082.   8009.
   7619.   7503.   7312.   7225.   7026.   7044.   6942.   7015.   7097.   7192.
   7306.   7481.   7456.   7761.   8227.   8164.   8521.   8584.   8597.   8312.
   8454.   8082.   8141.   7897.   7804.   7463.   7828.   7969.   7966.   7964.
   8054.   7749.   7812.   7682.   7820.   8070.   8218.   8149.   8182.   8592.
   8668.   8733.   9261.   9072.   9084.   9332.   9021.   8836.   8743.   8605.
   8546.   8332.   8221.   7893.   7875.   7511.   7393.   7150.   6873.   6404.
   6587.   6225.   6066.   6097.   5757.   5731.   5583.   5536.   5375.   5282.
   5351.   5259.   5290.   5268.   5316.   5119.   5369.   5300.   5144.   5111.
   5121.   5093.   5083.   5276.   4971.   5225.   5003.   5156.   5091.   5005.
   5054.   5148.   5448.   5207.   5182.   5298.   5018.   5355.   5406.   5426.
   5341.   5566.   5642.   5518.   5550.   5770.   5843.   5627.   5599.   5788.
   5782.   5782.   6074.   6074.   6202.   6418.   6481.   6952.   7249.   7515.
   7889.   8322.   8702.   8611.   8993.   8977.   9125.   8875.   8609.   8674.
   8529.   8214.   8511.   8141.   7942.   7771.   7912.   7895.   7611.   7507.
   7497.   7103.   6751.   6849.   6818.   6731.   6774.   6363.   6418.   6207.
   6347.   6268.   6243.   6298.   5910.   5853.   5489.   5759.   5581.   5755.
   5371.   5560.   5284.   5621.   5538.   5394.   5316.   5337.   5383.   5379.
   5262.   5595.   5629.   5696.   5721.   6046.   6113.   6280.   6396.   6322.
   6422.   6318.   5967.   6164.   6111.   6312.   6050.   6034.   5867.   5894.
   5904.   5987.   5739.   5851.   5699.   5973.   5774.   5737.   5676.   5794.
   5599.   5475.   5540.   5400.   5546.   5526.   5251.   5385.   5410.   5345.
   5255.   5396.   5247.   5296.   5375.   5233.   5392.   5129.   5388.   5278.
   5530.   5337.   5609.   5613.   5512.   5314.   5475.   5463.   5465.   5428.
   5579.   5678.   5365.   5558.   5575.   5408.   5428.   5282.   5583.   5420.
   5753.   5597.   5420.   5985.   5983.   6127.   6046.   6172.   6272.   6475.
   6723.   6337.   6605.   6493.   6583.   6426.   6233.   6178.   6274.   6296.
   6255.   6385.   6111.   6123.   5999.   5894.   5841.   5694.   5573.   5583.
   5636.   5540.   5526.   5603.   5448.   5601.   5471.   5520.   5512.   5507.
   5479.   5755.   5682.   5745.   5930.   5906.   6087.   6158.   6457.   6621.
   6707.   6676.   6524.   6422.   6467.   6558.   6328.   6247.   6463.   5969.
   5924.   6137.   6003.   5774.   5847.   5759.   5725.   5465.   5499.   5205.
   5323.   5251.   5158.   5209.   5113.   5239.   5129.   5068.   5178.   5058.
   4955.   5058.   4971.   4938.   4898.   4934.   5012.   4922.   4908.   4971.
   4938.   4676.   5083.   4692.   4877.   4934.   4947.   4957.   5034.   5052.
   4940.   4857.   4855.   4818.   4942.   4908.   5046.   4869.   4928.   5070.
   4938.   4745.   4816.   4583.   4873.   5034.   4926.   4916.   4908.   4821.
   5020.   5064.   4951.   5066.   4849.   5030.   5140.   5066.   5085.   5010.
   5016.   5233.   5172.   5294.   5424.   5467.   5463.   5692.   5853.   5902.
   6091.   6452.   6729.   6893.   7363.   7658.   7814.   7802.   7950.   8099.
   7849.   7767.   7465.   7546.   7022.   7107.   6952.   6706.   6802.   6932.
   6729.   6383.   6487.   6392.   6097.   6076.   5989.   5642.   5940.   5810.
   5745.   6326.   5944.   6200.   6127.   6178.   6241.   6030.   5987.   6156.
   6272.   5955.   6135.   6406.   6103.   6121.   6251.   6174.   6217.   6259.
   6448.   6532.   6347.   6802.   6639.   6753.   6814.   6530.   6650.   6432.
   6499.   6166.   6174.   6121.   6024.   5944.   5883.   6013.   5890.   5869.
   5780.   5617.   5540.   5566.   5528.   5648.   5386.   5259.   5404.   5532.
   5312.   5221.   5455.   5416.   5540.   5286.   5550.   5457.   5522.   5644.
   5646.   5757.   5873.   5788.   5825.   5959.   5940.   5995.   5902.   5861.
   5977.   6034.   5812.   6182.   6266.   6345.   6294.   6152.   6308.   6316.
   6251.   6058.   6162.   6160.   5853.   5871.   5822.   5902.   5887.   5717.
   5701.   5436.   5542.   5438.   5434.   5229.   5144.   5140.   5129.   5081.
   4999.   5136.   5018.   5176.   5079.   5046.   5052.   5044.   5162.   5046.
   5024.   4932.   5103.   5050.   4993.   5060.   5245.   5016.   5430.   5219.
   5404.   5174.   5243.   5396.   5349.   5390.   5660.   5699.   5924.   6144.
   6072.   6379.   6515.   6619.   6623.   6601.   6700.   6824.   6383.   6485.
   6353.   6375.   6414.   6371.   6570.   6550.   6503.   6566.   6763.   6751.


;
_cod_data_source_file            BaCuGaF7.cif
_cod_data_source_block           BaCuGaF7
_cod_original_cell_volume        518.60(4)
_cod_original_sg_symbol_H-M      'C 2/c'
_cod_database_code               3500050
_pd_proc_ls_prof_cr_factor       8.5585
_pd_proc_ls_prof_cwr_factor      9.3321
_pd_proc_ls_prof_cwr_expected    2.1765
_pd_proc_ls_prof_chi2            18.3831
_pd_proc_ls_prof_echi2           19.2509
loop_
_publ_manuscript_incl_extra_item
_publ_manuscript_incl_extra_info
_publ_manuscript_incl_extra_defn
'_pd_proc_ls_prof_cR_factor' 'Prof. R-factor CORRECTED for background' no
'_pd_proc_ls_prof_cwR_factor' 'wProf.R-factor CORRECTED for background' no
'_pd_proc_ls_prof_cwR_expected' 'wProf.Expected CORRECTED for background' no
'_pd_proc_ls_prof_chi2' 'Chi-square for all considered points' no
'_pd_proc_ls_prof_echi2' 'Chi-2 for points with Bragg contribution' no
loop_
_symmetry_equiv_pos_site_id
_symmetry_equiv_pos_as_xyz
1 x,y,z
2 -x,y,1/2-z
3 -x,-y,-z
4 x,-y,1/2+z
5 1/2+x,1/2+y,z
6 1/2-x,1/2+y,1/2-z
7 1/2-x,1/2-y,-z
8 1/2+x,1/2-y,1/2+z
loop_
_atom_site_label
_atom_site_type_symbol
_atom_site_thermal_displace_type
_atom_site_fract_x
_atom_site_fract_y
_atom_site_fract_z
_atom_site_occupancy
_atom_site_U_iso_or_equiv
_atom_site_calc_flag
_atom_site_refinement_flags
_atom_site_disorder_assembly
_atom_site_disorder_group
Ga Ga Uiso 0.3115(3) 0.3950(2) 0.1205(5) 0.500 0.0122(7) . . . .
Cu Cu Uiso 0.3115(3) 0.3950(2) 0.1205(5) 0.500 0.0122(7) . . . .
F1 F Uiso 0.00000 0.8188(10) 0.25000 1.000 0.0099(11) . . . .
F2 F Uiso 0.1266(6) 0.4536(6) 0.0150(11) 1.000 0.0099(11) . . . .
F3 F Uiso 0.2480(6) 0.2181(5) 0.2185(12) 1.000 0.0099(11) . . . .
F4 F Uiso 0.3701(7) 0.5515(6) 1.0021(13) 1.000 0.0099(11) . . . .
Ba Ba Uiso 0.00000 0.31805(15) 0.25000 1.000 0.0200(6) . . . .
loop_
_atom_type_symbol
_atom_type_scat_Cromer_Mann_a1
_atom_type_scat_Cromer_Mann_b1
_atom_type_scat_Cromer_Mann_a2
_atom_type_scat_Cromer_Mann_b2
_atom_type_scat_Cromer_Mann_a3
_atom_type_scat_Cromer_Mann_b3
_atom_type_scat_Cromer_Mann_a4
_atom_type_scat_Cromer_Mann_b4
_atom_type_scat_Cromer_Mann_c
_atom_type_scat_dispersion_real
_atom_type_scat_dispersion_imag
_atom_type_scat_source
Ba+2 20.18070 3.21367 19.11360 0.28331 10.90540 20.05580 0.77634 51.74600
3.02902 -1.33400 8.46000
International_Tables_for_Crystallography_Vol.C(1991)_Tables_6.1.1.4_and_6.1.1.5
Cu+2 11.81680 3.37484 7.11181 0.24408 5.78135 7.98760 1.14523 19.89700 1.14431
-2.01900 0.58900
International_Tables_for_Crystallography_Vol.C(1991)_Tables_6.1.1.4_and_6.1.1.5
Ga+3 12.69200 2.81262 6.69883 0.22789 6.06692 6.36441 1.00660 14.41220 1.53545
-1.35400 0.77700
International_Tables_for_Crystallography_Vol.C(1991)_Tables_6.1.1.4_and_6.1.1.5
F-1 3.63220 5.27756 3.51057 14.73530 1.26064 0.44226 0.94071 47.34370 0.65340
0.06900 0.05300
International_Tables_for_Crystallography_Vol.C(1991)_Tables_6.1.1.4_and_6.1.1.5
loop_
_geom_angle_atom_site_label_1
_geom_angle_atom_site_label_2
_geom_angle_atom_site_label_3
_geom_angle
_geom_angle_site_symmetry_1
_geom_angle_site_symmetry_2
_geom_angle_site_symmetry_3
_geom_angle_publ_flag
F2 Ga F3 85.3(3) . . . yes
F2 Ga F4 96.2(3) . . 1_554 yes
F2 Ga F4 90.0(3) . . 4_564 yes
F1 Ga F2 174.0(3) 5_545 . . yes
F2 Ga F3 93.7(3) . . 7_555 yes
F3 Ga F4 174.9(3) . . 1_554 yes
F3 Ga F4 84.8(3) . . 4_564 yes
F1 Ga F3 88.9(3) 5_545 . . yes
F3 Ga F3 77.8(2) . . 7_555 yes
F4 Ga F4 100.1(3) 1_554 . 4_564 yes
F1 Ga F4 89.7(4) 5_545 . 1_554 yes
F3 Ga F4 97.2(3) 7_555 . 1_554 yes
F1 Ga F4 87.9(3) 5_545 . 4_564 yes
F3 Ga F4 161.8(3) 7_555 . 4_564 yes
F1 Ga F3 86.6(3) 5_545 . 7_555 yes
F2 Cu F3 85.3(3) . . . yes
F2 Cu F4 96.2(3) . . 1_554 yes
F2 Cu F4 90.0(3) . . 4_564 yes
F1 Cu F2 174.0(3) 5_545 . . yes
F2 Cu F3 93.7(3) . . 7_555 yes
F3 Cu F4 174.9(3) . . 1_554 yes
F3 Cu F4 84.8(3) . . 4_564 yes
F1 Cu F3 88.9(3) 5_545 . . yes
F3 Cu F3 77.8(2) . . 7_555 yes
F4 Cu F4 100.1(3) 1_554 . 4_564 yes
F1 Cu F4 89.7(4) 5_545 . 1_554 yes
F3 Cu F4 97.2(3) 7_555 . 1_554 yes
F1 Cu F4 87.9(3) 5_545 . 4_564 yes
F3 Cu F4 161.8(3) 7_555 . 4_564 yes
F1 Cu F3 86.6(3) 5_545 . 7_555 yes
Ga F1 Ga 134.0(6) 5_455 . 6_555 yes
Ga F3 Ga 102.2(3) . . 7_555 yes
Ga F3 Cu 102.2(3) 7_555 . . yes
Ga F4 Ga 127.2(4) 1_556 . 4_565 yes
loop_
_geom_bond_atom_site_label_1
_geom_bond_atom_site_label_2
_geom_bond_distance
_geom_bond_site_symmetry_1
_geom_bond_site_symmetry_2
_geom_bond_publ_flag
Ga F2 1.852(8) . . yes
Ga F3 2.042(6) . . yes
Ga F4 1.902(7) . 1_554 yes
Ga F4 2.000(7) . 4_564 yes
Ga F1 1.926(5) . 5_545 yes
Ga F3 2.033(6) . 7_555 yes
Cu F2 1.852(8) . . yes
Cu F3 2.042(6) . . yes
Cu F4 1.902(7) . 1_554 yes
Cu F4 2.000(7) . 4_564 yes
Cu F1 1.926(5) . 5_545 yes
Cu F3 2.033(6) . 7_555 yes
loop_
_geom_torsion_atom_site_label_1
_geom_torsion_atom_site_label_2
_geom_torsion_atom_site_label_3
_geom_torsion_atom_site_label_4
_geom_torsion
_geom_torsion_site_symmetry_1
_geom_torsion_site_symmetry_2
_geom_torsion_site_symmetry_3
_geom_torsion_site_symmetry_4
_geom_torsion_publ_flag
F2 Ga F3 Ga 94.8(3) . . . 7_555 no
F4 Ga F3 Ga -174.8(4) 4_564 . . 7_555 no
F3 Ga F3 Ga 0.0(3) 7_555 . . 7_555 no
F2 Ga F4 Ga -73.1(5) . . 1_554 4_564 no
F2 Ga F4 Ga -39.3(5) . . 4_564 4_565 no
F3 Ga F4 Ga -124.6(5) . . 4_564 4_565 no
F2 Ga F3 Ga -84.4(3) . . 7_555 7_555 no
F3 Ga F3 Ga 0.0(3) . . 7_555 7_555 no
F2 Cu F3 Ga 94.8(3) . . . 7_555 no
F4 Cu F3 Ga -174.8(4) 4_564 . . 7_555 no
F3 Cu F3 Ga 0.0(3) 7_555 . . 7_555 no
F2 Cu F4 Ga -73.1(5) . . 1_554 4_564 no
F2 Cu F4 Ga -39.3(5) . . 4_564 4_565 no
F3 Cu F4 Ga -124.6(5) . . 4_564 4_565 no
F2 Cu F3 Ga -84.4(3) . . 7_555 7_555 no
F3 Cu F3 Ga 0.0(3) . . 7_555 7_555 no
