#------------------------------------------------------------------------------
#$Date: 2016-11-30 15:20:00 +0200 (Wed, 30 Nov 2016) $
#$Revision: 188774 $
#$URL: file:///home/coder/svn-repositories/cod/cif/3/50/00/3500049.cif $
#------------------------------------------------------------------------------
#
# This file is available in the Crystallography Open Database (COD),
# http://www.crystallography.net/
#
# All data on this site have been placed in the public domain by the
# contributors.
#
data_3500049
loop_
_publ_author_name
'Armel Le Bail'
_publ_section_title
;
 BaMnFeF7 fluoride glass recrystallizing at 440 C in the BaMnGaF7
 structure type instead of the BaMnFeF7 type
;
_journal_name_full               'Personal communication to COD'
_journal_year                    2016
_chemical_compound_source
;
Fluoride glass of composition BaMnFeF7 recrystallized at 440 C
;
_chemical_formula_sum            'Ba F7 Fe Mn'
_chemical_formula_weight         381.12
_space_group_IT_number           15
_symmetry_cell_setting           monoclinic
_symmetry_space_group_name_Hall  '-C 2yc'
_symmetry_space_group_name_H-M   'C 1 2/c 1'
_cell_angle_alpha                90.00000
_cell_angle_beta                 90.831(2)
_cell_angle_gamma                90.00000
_cell_formula_units_Z            8
_cell_length_a                   13.7972(8)
_cell_length_b                   5.3432(3)
_cell_length_c                   14.7638(8)
_cell_measurement_temperature    295
_cell_volume                     1088.29(11)
_computing_structure_refinement  FULLPROF
_diffrn_ambient_temperature      295
_diffrn_radiation_monochromator  graphite
_diffrn_radiation_probe          x-ray
_diffrn_radiation_type           CuK\a
_diffrn_radiation_wavelength     1.54184
_exptl_absorpt_coefficient_mu    93.361
_exptl_crystal_density_diffrn    4.652
_exptl_crystal_F_000             1360
_pd_meas_2theta_range_inc        0.020000
_pd_meas_2theta_range_max        79.98000
_pd_meas_2theta_range_min        10.00000
_pd_meas_number_of_points        3500
_pd_proc_2theta_range_inc        0.020000
_pd_proc_2theta_range_max        79.9350
_pd_proc_2theta_range_min        9.9550
_pd_proc_ls_prof_R_factor        5.2170
_pd_proc_ls_prof_wR_expected     1.4352
_pd_proc_ls_prof_wR_factor       6.9452
_pd_proc_wavelength              1.540560
_refine_ls_number_parameters     42
_refine_ls_number_reflns         774
_refine_ls_number_restraints     0
_refine_ls_R_I_factor            5.5109
_iucr_refine_instructions_details
;
Fullprof .pcr file, modified to fit inside 80 columns
followed by the .dat file


COMM  BaMnFeF7 glass recrystallizing at 440 C in the BaMnGaF7 structure type
! Current global Chi2 (Bragg contrib.) =      23.63    
! Files => DAT-file: bmf6.dat,  PCR-file: bmf6
!Job Npr Nph Nba Nex Nsc Nor Dum Iwg Ilo Ias Res Ste Nre Cry Uni Cor 
Opt Aut
   0   5   1  21   4   0   1   1   0   0   1   0   0   0   0   0   0 
  0   0
!
!Ipr Ppl Ioc Mat Pcr Ls1 Ls2 Ls3 NLI Prf Ins Rpa Sym Hkl Fou Sho Ana
   0   0   1   0   2   0   4   0   0  -3   0  -1   1   0   2   1   1
!
! Lambda1  Lambda2    Ratio    Bkpos    Wdt    Cthm     muR   AsyLim  
 Rpolarz  2nd-muR -> Patt# 1
 1.540560 1.544390  0.53000   90.000 12.0000  0.7998  0.0000   90.00  
  0.0000  0.0000
!
!NCY  Eps  R_at  R_an  R_pr  R_gl     Thmin       Step       Thmax  
  PSD    Sent0
 10  0.01  0.30  0.30  0.30  0.60     10.0000   0.020000    79.9800 
  0.000   0.000
!
!2Theta/TOF/E(Kev)   Background  for Pattern#  1
        10.0000      7600.0000          0.00
        11.0000      6200.0000          0.00
        12.5400      5312.0000          0.00
        13.2600      4775.0000          0.00
        16.6000      3300.0000          0.00
        18.3000      3142.0000          0.00
        19.3800      2905.0000          0.00
        20.9000      2776.0000          0.00
        22.1400      2773.0000          0.00
        22.9000      2663.0000          0.00
        24.5800      3224.0000          0.00
        26.8400      3673.0000          0.00
        29.4000      2646.0000          0.00
        32.0000      1772.0000          0.00
        34.6000      1619.0000          0.00
        37.6000      1700.0000          0.00
        42.2000      1750.0000          0.00
        46.2800      1705.0000          0.00
        60.1800      1272.0000          0.00
        71.5000      1220.0000          0.00
        73.8600      1227.0000          0.00
! 
! Excluded regions (LowT  HighT) for Pattern#  1
       23.00       23.60
       24.58       25.16
       28.98       29.40
       32.00       33.30
! 
!
      42    !Number of refined parameters
!
!  Zero    Code    SyCos    Code   SySin    Code  Lambda     Code MORE 
->Patt# 1
  0.04502   21.0  0.00000    0.0  0.00000    0.0 0.000000    0.00   0
!----------------------------------------------------------------------
---------
!  Data for PHASE number:   1  ==> Current R_Bragg for Pattern#  1:     
5.51
!----------------------------------------------------------------------
---------
  "BaMnFeF7"
!
!Nat Dis Ang Pr1 Pr2 Pr3 Jbt Irf Isy Str Furth       ATZ    Nvk Npr More
  11   0   0 1.0 0.0 0.0   0   0   0   0   0          4.878   0   5   1
!
!Jvi Jdi Hel Sol Mom Ter  Brind   RMua    RMub    RMuc   Jtyp  Nsp_Ref 
Ph_Shift N_Domains
   2   3   0   0   0   0  1.0000  0.0000  0.0000  0.0000    0      0  
    0      0
!
! Max_dst(dist) (angles)  Bond-Valence Calc.
      3.5000    180.0000        BVS
!  N_cations   N_anions     Tolerance(%) / Name or cations/ and Anions
       3           1               80.00
BA+2 MN+2 FE+3
F-1 
!
C 2/C                    <--Space group symbol
!Atom   Typ       X        Y        Z     Biso       Occ     In Fin N_t Spc 
/Codes
BA     BA+2    0.19038 -0.04375  0.12081  2.02529   0.04000   0   0   0    1  
                121.00   131.00   141.00   151.00      0.00
MN1    MN+2    0.00000  0.46138  0.25000  1.00604   0.02000   0   0   0    2  
                  0.00   161.00     0.00   171.00      0.00
MN2    MN+2    0.00000  0.50000  0.00000  1.00604   0.02000   0   0   0    2  
                  0.00     0.00     0.00   171.00      0.00
FE     FE+3    0.37941  0.49199  0.12271  1.00604   0.04000   0   0   0    3  
                181.00   191.00   201.00   171.00      0.00
F1     F-1     0.16654  0.19584  0.27574  1.09631   0.04000   0   0   0    4  
                211.00   221.00   231.00   421.00      0.00
F2     F-1     0.41813  0.33314  0.01453  1.09631   0.04000   0   0   0    4  
                241.00   251.00   261.00   421.00      0.00
F3     F-1     0.37782  0.22995  0.21389  1.09631   0.04000   0   0   0    4  
                271.00   281.00   291.00   421.00      0.00
F4     F-1     0.37376  0.21713  0.55001  1.09631   0.04000   0   0   0    4  
                301.00   311.00   321.00   421.00      0.00
F5     F-1     0.51164  0.36352  0.65941  1.09631   0.04000   0   0   0    4  
                331.00   341.00   351.00   421.00      0.00
F6     F-1     0.24530  0.44738  0.09138  1.09631   0.04000   0   0   0    4  
                361.00   371.00   381.00   421.00      0.00
F7     F-1     0.44659  0.07230  0.36914  1.09631   0.04000   0   0   0    4  
                391.00   401.00   411.00   421.00      0.00
!-------> Profile Parameters for Pattern #  1
!  Scale        Shape1      Bov      Str1      Str2      Str3   Strain-Model
 0.44142       0.64514   0.00000   0.00000   0.00000   0.00000       0
    11.00000    31.000     0.000     0.000     0.000     0.000
!       U         V          W           X          Y        GauSiz   LorSiz 
Size-Model
   0.138166  -0.008055   0.026932   0.000000   0.000000   0.000000   0.000000
    0
     51.000      0.000     41.000      0.000      0.000      0.000      0.000
!     a          b         c        alpha      beta       gamma      #Cell I
nfo
  13.797183   5.343158  14.763836  90.000000  90.830795  90.000000   
   61.00000   71.00000   81.00000    0.00000   91.00000    0.00000
!  Pref1    Pref2      Asy1     Asy2     Asy3     Asy4  
  1.00000  0.00000  0.02624  0.02499  0.00000  0.00000
     0.00     0.00   101.00   111.00     0.00     0.00
!  2Th1/TOF1    2Th2/TOF2  Pattern to plot
      10.000      79.980       1




Fullprof .dat file


      10.00     0.02    79.98
   7111.   7038.   6751.   7330.   7470.   7001.   7147.   7232.   6849.   6538.
   6946.   6849.   6745.   6867.   6928.   6733.   6721.   7050.   6776.   6563.
   6386.   7226.   6429.   6617.   6977.   6216.   6508.   6404.   6490.   6563.
   6605.   6806.   6624.   6496.   6350.   6441.   6398.   6301.   6313.   6289.
   6490.   6289.   6252.   6398.   6490.   6118.   6118.   6063.   6234.   6526.
   6222.   6191.   6319.   6149.   6003.   6222.   6228.   6228.   6289.   5570.
   6143.   5796.   5936.   6124.   6252.   5905.   6331.   5771.   5936.   5984.
   6167.   6210.   6240.   6039.   5656.   6258.   5899.   6082.   5607.   5783.
   5972.   5765.   6021.   5802.   5875.   5863.   5960.   5595.   5607.   5753.
   5674.   6234.   5869.   5790.   5656.   5497.   5382.   5814.   5631.   5436.
   5710.   5838.   5881.   5978.   5844.   5930.   5741.   5625.   5516.   5503.
   5388.   5339.   5296.   5126.   5570.   5613.   5467.   5345.   5473.   5162.
   5211.   5467.   5412.   5156.   5473.   5223.   5309.   5296.   5254.   5479.
   5692.   5516.   5534.   5802.   5388.   5741.   5467.   5698.   5522.   5838.
   5966.   6094.   6100.   6277.   6429.   6453.   5820.   5966.   5394.   5443.
   5637.   4730.   5071.   5041.   4895.   4822.   5217.   4742.   4955.   4937.
   5132.   5041.   4529.   4724.   4840.   4742.   4828.   4870.   4736.   4791.
   4608.   4748.   4682.   4596.   4730.   4450.   4566.   4401.   4882.   4505.
   4828.   4755.   4359.   4523.   4651.   4517.   4700.   4828.   4487.   4462.
   4566.   4535.   4426.   4548.   4487.   4560.   4584.   4602.   4054.   4554.
   4578.   4207.   4468.   4353.   4481.   4286.   4572.   4554.   4548.   4073.
   4657.   4316.   4231.   4511.   4170.   4268.   4121.   4073.   4462.   4201.
   3988.   4432.   4195.   4061.   4401.   4115.   4316.   4511.   4176.   3988.
   4231.   4335.   4103.   4012.   4079.   4353.   4128.   4225.   3963.   4054.
   4115.   3939.   4237.   4134.   3841.   4073.   3835.   3957.   3841.   3872.
   4237.   4182.   4018.   3878.   3994.   3994.   4030.   3872.   3921.   3878.
   3884.   4061.   3933.   3896.   3951.   4042.   3981.   3756.   3927.   3933.
   3957.   3750.   3896.   3805.   3677.   4109.   3805.   3902.   3817.   3829.
   4048.   3574.   4085.   3860.   3707.   3720.   3683.   3994.   4030.   3866.
   3689.   3586.   3762.   3720.   3835.   3628.   3586.   3470.   3397.   3513.
   3488.   3543.   3707.   3598.   3933.   3738.   4018.   3768.   3464.   3525.
   3634.   3336.   3628.   3598.   3665.   3507.   3653.   3665.   3604.   3549.
   3561.   3513.   3659.   3622.   3604.   3598.   3427.   3397.   3574.   3732.
   3324.   3519.   3592.   3488.   3714.   3616.   3580.   3574.   3647.   3604.
   3610.   3281.   3494.   3409.   3513.   3287.   3494.   3519.   3616.   3330.
   3233.   3458.   3458.   3452.   3701.   3549.   3397.   3555.   3507.   3476.
   3531.   3762.   3531.   3214.   3555.   3580.   3434.   3379.   3586.   3537.
   3354.   3494.   3616.   3744.   3841.   3689.   3787.   3847.   4134.   4401.
   4615.   4742.   4736.   4949.   5522.   5759.   6398.   7031.   7677.   8219.
   8986.   9954.   9582.   9467.   9333.   8030.   7287.   6447.   5607.   4742.
   4304.   3957.   3604.   3695.   3367.   3452.   3105.   3561.   3391.   3434.
   3330.   3367.   3367.   3245.   3074.   3275.   3111.   3507.   3409.   3446.
   3227.   3111.   3452.   3318.   3446.   3434.   3324.   3458.   3580.   3726.
   3951.   4140.   3884.   4237.   4468.   4809.   4901.   5473.   5607.   6654.
   6940.   7287.   7080.   7305.   6831.   6526.   6076.   5680.   5162.   4688.
   4292.   3823.   3701.   3488.   3610.   3208.   3281.   3312.   3403.   3208.
   3233.   3074.   3409.   3239.   3160.   3208.   2922.   3050.   2855.   3044.
   3080.   2995.   2892.   3178.   3324.   2977.   2849.   2873.   2947.   3038.
   3099.   2867.   2721.   2721.   2800.   2965.   2922.   2965.   2770.   2733.
   3099.   2940.   2947.   2880.   2703.   2904.   2758.   2666.   2837.   2861.
   2916.   2922.   2660.   2825.   2813.   2867.   3013.   2764.   2892.   2782.
   2819.   2934.   2636.   2928.   2831.   2977.   2563.   2843.   2746.   2520.
   2794.   2593.   2867.   2770.   2612.   2819.   2752.   2679.   2673.   2880.
   2806.   2831.   2764.   2880.   2721.   2575.   2727.   2709.   2764.   2715.
   2843.   2770.   3111.   3166.   2916.   2794.   3105.   2898.   2740.   2800.
   2953.   2965.   2989.   3233.   3135.   3257.   3294.   3306.   3549.   3720.
   3866.   3750.   4176.   3963.   4383.   4955.   5570.   5820.   6526.   7111.
   8249.   9692.  11208.  12742.  14233.  15853.  17253.  17131.  16967.  17113.
  16589.  15414.  14288.  11609.  10489.   8608.   7159.   6149.   5126.   4840.
   3750.   3793.   3793.   3342.   3135.   3220.   3013.   2934.   2800.   2831.
   2819.   2776.   2922.   2764.   2794.   2959.   2983.   2746.   2837.   2843.
   2788.   2691.   2630.   2606.   2703.   2551.   2654.   2746.   2965.   2813.
   2581.   2825.   2624.   2435.   2691.   2849.   2545.   2819.   2806.   2727.
   2715.   2666.   2673.   2630.   2636.   2740.   2441.   2563.   2782.   2599.
   2752.   2703.   2569.   2880.   2593.   2965.   2825.   2551.   2691.   2892.
   2971.   2928.   2898.   2959.   3135.   2916.   3269.   2965.   3257.   3385.
   3153.   3476.   3263.   3683.   3641.   3927.   3695.   4140.   3866.   3914.
   3701.   3634.   3421.   3379.   3574.   3543.   3166.   3166.   3574.   3689.
   3330.   3263.   3446.   3531.   3415.   3683.   3360.   3434.   3543.   3835.
   4073.   3908.   3860.   3975.   4128.   4475.   4834.   5376.   5960.   6307.
   7305.   8681.   9412.  11652.  14057.  16358.  19731.  21277.  22878.  22373.
  21368.  18239.  15274.  12340.  10453.   8742.   7135.   6137.   5869.   5108.
   4742.   4694.   4529.   4353.   4048.   4176.   3933.   3774.   3726.   4097.
   3927.   4097.   4255.   4219.   4347.   4529.   4974.   5162.   5625.   5838.
   6234.   6137.   6599.   6770.   6867.   6855.   7025.   6441.   6648.   6331.
   6130.   6203.   6228.   6240.   6240.   6155.   6137.   6429.   6678.   6502.
   7324.   7354.   7945.   8231.   8852.  10270.  11500.  12997.  14288.  17289.
  19378.  23469.  27505.  32095.  38755.  47351.  57743.  69985.  82618.  93685.
  98988.  99000.  92498.  80359.  68117.  54504.  41184.  31991.  23858.  18458.
  13667.  11810.  10349.   9010.   8371.   7324.   7311.   6544.   5972.   6124.
   6234.   5485.   5710.   5339.   5169.   5418.   5254.   5570.   5266.   5406.
   5534.   5893.   6167.   6721.   7318.   7336.   7981.   8371.   8645.   8809.
   8523.   7945.   7506.   6818.   6447.   6423.   6033.   5893.   5747.   5388.
   5345.   5205.   5388.   5102.   4706.   4249.   4566.   4505.   4158.   4036.
   4176.   4036.   4134.   3817.   4201.   3939.   4231.   4310.   4414.   4779.
   4876.   4992.   5558.   5808.   6514.   7220.   7969.   9558.  10648.  12845.
  14939.  17752.  20175.  21563.  22421.  21837.  21131.  19554.  16461.  13722.
  12230.  11214.  10228.   9972.  10191.  10745.  12559.  13807.  15974.  18580.
  19968.  20485.  20102.  19091.  17740.  16084.  13728.  11542.  10483.   9022.
   7829.   7244.   7074.   6301.   6264.   5771.   6240.   6094.   6063.   6021.
   6398.   6453.   6983.   7318.   8279.   9290.   9850.  11494.  14179.  16474.
  19158.  20315.  20979.  21691.  21520.  20230.  19603.  19505.  19341.  20546.
  22421.  23852.  25922.  27267.  27006.  25477.  23097.  20589.  18221.  15548.
  13551.  11646.  10501.  10422.  11195.  12291.  12937.  14258.  14781.  14818.
  14489.  13418.  12188.  10508.   9582.   8444.   7171.   5911.   5735.   5704.
   5302.   5710.   5114.   5290.   5059.   4913.   4645.   4456.   4389.   4079.
   3641.   3774.   3683.   3324.   3239.   3281.   3427.   3415.   3525.   3178.
   3080.   3007.   2940.   2886.   3147.   3300.   3379.   3184.   3129.   3153.
   3318.   3129.   3458.   3586.   3598.   3440.   3884.   3963.   4261.   4450.
   5089.   4968.   5485.   5613.   6465.   7086.   7561.   8706.  10209.  12139.
  14519.  17758.  20723.  23615.  27170.  29623.  30092.  30713.  30427.  30524.
  30725.  30226.  30019.  28527.  26713.  24284.  21301.  17874.  14842.  11591.
   9442.   8042.   6745.   5881.   4475.   4468.   3878.   3878.   3452.   3287.
   3488.   2995.   2654.   2593.   2441.   2648.   2618.   2313.   2186.   2411.
   2307.   2313.   2058.   2064.   2149.   2149.   2149.   2252.   2100.   1820.
   2106.   2179.   2088.   2216.   2204.   2222.   2265.   2204.   2033.   2046.
   2216.   2179.   2137.   2088.   2259.   2234.   2502.   2344.   2374.   2386.
   2344.   2179.   2228.   2216.   2393.   2246.   1991.   1960.   2027.   2033.
   1948.   2131.   2058.   1790.   1881.   2021.   2058.   1899.   1790.   1784.
   1705.   1790.   1723.   1948.   1723.   1826.   1741.   1820.   1814.   1632.
   1790.   1893.   1729.   1674.   1924.   1723.   1930.   1881.   1893.   1753.
   2009.   1857.   1796.   1905.   1772.   1857.   1802.   1583.   1997.   1698.
   1948.   1912.   1802.   2228.   2076.   2094.   2332.   2167.   2143.   2112.
   2192.   2271.   2021.   2472.   2234.   2204.   2313.   2557.   2453.   2106.
   2252.   2508.   2380.   2599.   2551.   2709.   2746.   2593.   2703.   2855.
   2648.   2764.   2636.   2758.   2782.   2752.   2916.   2880.   3220.   3306.
   3434.   3093.   3160.   3026.   3263.   3391.   3799.   3738.   4152.   4621.
   5010.   5674.   6648.   8279.   9345.  10788.  12754.  14428.  16181.  16869.
  17661.  17320.  15786.  14245.  12510.  10702.   8718.   7439.   6051.   5089.
   4292.   3671.   3580.   3032.   2867.   2539.   2313.   2405.   2319.   2161.
   2167.   2265.   2259.   2155.   2508.   2350.   2386.   2490.   2417.   2502.
   2386.   2246.   2252.   2204.   2046.   1948.   2009.   1826.   1912.   1577.
   1613.   1753.   1583.   1558.   1583.   1936.   1613.   1467.   1339.   1845.
   1668.   1558.   1686.   1784.   1759.   1802.   1905.   1942.   1826.   1662.
   1814.   2125.   1942.   1918.   1772.   1972.   2222.   2009.   2405.   2240.
   2295.   2642.   2612.   3038.   3227.   3421.   3793.   4803.   5047.   5948.
   6751.   8005.   8766.   8913.   9290.   9393.   8894.   8426.   7725.   7433.
   6733.   6240.   5771.   5942.   5674.   5302.   5345.   5863.   6100.   6654.
   7031.   7500.   8517.   8176.   8346.   8273.   7774.   7287.   6453.   6051.
   5649.   5467.   5266.   4889.   5211.   5369.   4955.   4992.   4779.   4645.
   4724.   4024.   3756.   3768.   3257.   3360.   2977.   2526.   2636.   2575.
   2697.   2222.   2234.   2186.   2210.   1948.   2149.   2295.   2125.   2222.
   2313.   2234.   2642.   2867.   2673.   3513.   3732.   4036.   4554.   4645.
   5016.   5211.   5376.   5522.   5290.   5169.   4627.   4712.   4195.   3969.
   3513.   3153.   2995.   2618.   2301.   2429.   2240.   2265.   2386.   2058.
   1960.   2131.   2100.   2112.   2112.   2362.   2447.   2533.   2539.   2752.
   2776.   3208.   3348.   3312.   3695.   3860.   3847.   3531.   3671.   3287.
   2910.   3038.   2727.   2417.   2198.   2307.   2106.   2173.   2052.   2119.
   2112.   2149.   2082.   2149.   1924.   1924.   1912.   2058.   2046.   2192.
   2155.   2179.   2198.   2326.   2295.   2368.   2496.   2466.   2234.   2697.
   2806.   3129.   3190.   3440.   3641.   3957.   4286.   4858.   4980.   5747.
   5497.   5887.   6118.   6222.   6277.   6447.   6246.   6398.   6112.   5662.
   5729.   5363.   5065.   5053.   4779.   5132.   4852.   4529.   4590.   4462.
   4462.   4310.   4657.   4383.   4560.   4176.   4073.   3945.   4195.   3963.
   4152.   4377.   4146.   4347.   4432.   5144.   5120.   5461.   6569.   7165.
   8486.   9655.  10806.  12206.  13198.  13119.  13314.  13716.  13168.  11853.
  10934.  10447.   9570.   8474.   7853.   7555.   6465.   5589.   5126.   4694.
   4079.   3963.   3641.   3196.   3135.   2995.   3196.   2904.   3093.   3032.
   3391.   3147.   3263.   3330.   3117.   3306.   3507.   4115.   4280.   4633.
   4694.   5400.   5022.   4748.   4554.   4341.   4389.   3994.   3860.   3586.
   3342.   3068.   3068.   2806.   2703.   2551.   2648.   2758.   2740.   2514.
   2873.   2679.   2575.   2606.   2770.   2934.   2867.   2983.   3068.   3300.
   3567.   3482.   3574.   3647.   3957.   4408.   4170.   4730.   5485.   5948.
   6301.   7238.   8401.   8992.  10197.  10355.  11171.  11652.  11275.  12096.
  11390.  11743.  12066.  12535.  12979.  13625.  13996.  14471.  15451.  15244.
  16273.  15548.  15134.  14337.  14197.  12797.  12736.  11956.  11415.  11628.
  11695.  12443.  13801.  15323.  16285.  17703.  18336.  18653.  17983.  18105.
  17149.  15457.  13625.  12699.  11299.   9923.   8864.   8115.   7841.   7165.
   7713.   8145.   8791.   9387.  10459.  11354.  12456.  13679.  13485.  14008.
  14221.  13929.  12784.  11427.  11208.   9771.   8383.   7939.   6800.   5741.
   4974.   4456.   3866.   4188.   3549.   2983.   2947.   2910.   2715.   2788.
   2636.   2435.   2660.   2435.   2362.   2283.   2399.   2252.   2429.   2167.
   2393.   2326.   2271.   2106.   2271.   2271.   2252.   2186.   2234.   2496.
   2685.   2539.   2423.   2606.   2520.   2922.   3056.   3245.   3555.   4061.
   4158.   4584.   4438.   5162.   5095.   5181.   5138.   4974.   5089.   4688.
   4602.   4517.   4359.   4535.   4645.   4931.   5095.   5430.   5357.   5820.
   6386.   6964.   6776.   6946.   7117.   6764.   7159.   6733.   6776.   6423.
   5838.   5790.   5363.   5345.   4822.   5083.   4864.   4846.   4852.   4889.
   5570.   6063.   6508.   7092.   8511.   8864.   9637.  10033.  10587.  10848.
  11348.  10922.  11396.  11384.  11457.  11993.  11969.  12431.  13302.  13965.
  13777.  14879.  15871.  16571.  16851.  16553.  16261.  15968.  14830.  13716.
  12115.  10800.   9479.   8809.   8109.   7074.   6611.   6240.   5802.   5686.
   6100.   6331.   6508.   7092.   7792.   8176.   9247.   9856.  10447.  11518.
  11883.  12224.  12663.  13320.  13655.  13606.  14386.  14154.  14641.  14739.
  14964.  14446.  14416.  14252.  14854.  14014.  13539.  12711.  12334.  11177.
  10313.   9223.   8779.   7610.   6398.   5936.   5223.   4724.   4962.   4061.
   3884.   3933.   3300.   3726.   3707.   3744.   4152.   4152.   4554.   4499.
   4438.   4468.   4292.   4085.   4274.   4225.   4298.   4566.   4669.   4730.
   5029.   4852.   4907.   5016.   4639.   4736.   4231.   4152.   3580.   3239.
   3013.   2819.   2813.   2636.   2496.   2173.   2216.   2125.   2155.   2021.
   1893.   1802.   1875.   1893.   1979.   1832.   1905.   1778.   1619.   1705.
   1784.   1875.   1741.   1516.   1485.   1790.   1845.   1979.   1680.   1686.
   1692.   1674.   1784.   1625.   1997.   2179.   2112.   2368.   2508.   2679.
   2819.   3160.   3105.   3360.   3373.   3683.   3214.   3032.   3220.   3074.
   2940.   2965.   2788.   2502.   2466.   2466.   2228.   1997.   2112.   2301.
   1991.   2021.   2058.   1979.   2112.   2240.   1863.   1979.   1979.   1741.
   1930.   1948.   1991.   1948.   2155.   2070.   1966.   2052.   2100.   2198.
   2252.   2393.   2447.   2246.   2283.   2679.   2788.   2873.   3367.   3781.
   3969.   4140.   4073.   4797.   4408.   4669.   4657.   4444.   4097.   3847.
   3500.   3549.   3275.   3080.   3013.   2953.   2959.   2867.   2533.   2472.
   2520.   2216.   2252.   2173.   2015.   2015.   1948.   1717.   2003.   1753.
   1534.   1571.   1601.   1832.   1729.   1729.   1388.   1790.   1650.   1686.
   1492.   1552.   1735.   1595.   1711.   1905.   1735.   1741.   1845.   1997.
   2027.   1826.   1869.   2094.   1857.   1960.   2094.   2052.   2240.   2106.
   2301.   2265.   2155.   2405.   2112.   2167.   2417.   2496.   2569.   2319.
   2758.   2642.   2612.   2630.   2837.   2770.   3080.   3099.   3476.   3531.
   4030.   4493.   4773.   5631.   6599.   7165.   8352.   9424.  10733.  10794.
  11232.  11469.  11756.  11938.  11183.  10800.  10538.  10654.  10374.   9777.
   9339.   8024.   7695.   7184.   6849.   6222.   5674.   5071.   4962.   4712.
   4517.   4535.   4554.   4633.   4615.   4286.   5205.   5138.   5102.   5260.
   5010.   5388.   4901.   4724.   4584.   4432.   3933.   3774.   3787.   3324.
   3147.   2965.   2849.   2953.   2819.   2703.   2995.   2794.   2624.   2770.
   2660.   2758.   2940.   2703.   2989.   2880.   2983.   3269.   3257.   3415.
   3513.   4121.   4347.   4974.   5181.   6057.   6581.   7001.   6995.   7202.
   7178.   6964.   6812.   6916.   6508.   6891.   6435.   6258.   6593.   7001.
   7293.   8304.   8559.   8870.   9187.   9412.   9278.   9180.   8730.   8438.
   8005.   7208.   7019.   6185.   5783.   5236.   4511.   3580.   3586.   3172.
   2758.   2764.   2721.   2447.   2478.   2435.   2058.   2228.   2186.   1924.
   2082.   2058.   1814.   2076.   1997.   1905.   1936.   2009.   1997.   1966.
   1820.   1997.   1905.   1680.   1991.   1893.   2094.   1942.   2125.   2405.
   2259.   2161.   2575.   2484.   2685.   2764.   2715.   3184.   3208.   3026.
   2770.   3129.   3020.   2965.   2989.   2703.   2673.   2727.   2575.   2386.
   2508.   3026.   3196.   2922.   2794.   3440.   3251.   3427.   3360.   3220.
   2971.   2831.   3141.   2788.   2551.   2971.   2612.   2386.   2301.   2423.
   2246.   2374.   2234.   2453.   2356.   2368.   2691.   2867.   2904.   2782.
   3068.   2813.   3190.   3214.   3208.   3452.   3184.   3768.   3147.   3281.
   3239.   3129.   3123.   3263.   2867.   2983.   3263.   2819.   2898.   2837.
   2721.   2934.   2819.   2697.   2752.   2928.   2776.   2892.   2971.   2983.
   3220.   3123.   3129.   2916.   3172.   3111.   3202.   3269.   3500.   3373.
   3866.   4261.   4767.   4901.   5443.   5723.   6021.   6581.   6684.   6258.
   6697.   6222.   6015.   6380.   5680.   6070.   6234.   6015.   6532.   6380.
   6502.   6222.   6216.   6100.   5869.   5649.   5205.   4815.   5102.   4322.
   3988.   3567.   3525.   3050.   3184.   2636.   2417.   2533.   2533.   2435.
   2265.   2350.   2052.   2039.   2198.   2033.   2100.   2228.   2319.   2271.
   2459.   2405.   2435.   2843.   2861.   2898.   3178.   3269.   3555.   3933.
   3957.   4128.   4621.   4815.   4955.   5205.   5534.   6185.   6362.   6654.
   7171.   7518.   8334.   8742.   8413.   8973.   8742.   8870.   8645.   8346.
   8115.   7792.   7196.   7506.   6958.   6593.   6277.   5930.   5741.   5485.
   5503.   5643.   5394.   5217.   5473.   5485.   5540.   5248.   5357.   5114.
   5321.   4913.   5095.   5272.   5022.   4998.   5004.   5041.   5315.   5236.
   5455.   5765.   5978.   7013.   7366.   7616.   8304.   8620.   8809.   8681.
   8060.   7750.   7342.   7214.   6703.   6246.   6039.   5534.   4736.   4566.
   4261.   4359.   3762.   3866.   3799.   3707.   3841.   4146.   4347.   4742.
   5503.   6313.   7056.   7920.   8273.   8785.   9083.   8986.   8377.   7920.
   7786.   7549.   7342.   7415.   6496.   6118.   5400.   4913.   4688.   4067.
   3841.   3507.   3294.   3245.   3275.   2977.   3001.   2867.   3013.   3062.
   3105.   3056.   3233.   3281.   2867.   3147.   2880.   3038.   2794.   3196.
   2691.   2861.   2563.   2393.   2478.   2277.   2399.   2283.   2624.   2399.
   2624.   2800.   2934.   3080.   3287.   3860.   4170.   4213.   4755.   4852.
   5461.   5564.   5741.   5917.   5832.   5753.   5406.   5272.   5083.   4822.
   4627.   4383.   4024.   3963.   3488.   3166.   3105.   2624.   2490.   2222.
   2326.   1905.   2021.   1899.   1778.   1638.   1686.   1790.   1686.   1516.
   1698.   1662.   1674.   1674.   1942.   1510.   1735.   1717.   1826.   1991.
   1814.   2064.   1954.   2167.   2070.   2259.   2259.   2277.   2131.   2399.
   2356.   2399.   2271.   2143.   2149.   2003.   1966.   1979.   1954.   1930.
   1863.   1583.   1711.   1632.   1625.   1376.   1479.   1546.   1510.   1461.
   1449.   1510.   1479.   1425.   1461.   1400.   1577.   1674.   1540.   1899.
   1790.   1960.   1954.   1960.   2009.   2082.   1930.   2033.   1948.   1772.
   1802.   1759.   1790.   1887.   1772.   1571.   1638.   1534.   1607.   1510.
   1315.   1364.   1291.   1254.   1309.   1516.   1364.   1272.   1291.   1351.
   1358.   1242.   1358.   1181.   1370.   1327.   1248.   1248.   1303.   1358.
   1321.   1382.   1364.   1437.   1345.   1260.   1315.   1339.   1388.   1138.
   1449.   1345.   1266.   1327.   1437.   1595.   1272.   1467.   1613.   1382.
   1632.   1504.   1753.   1644.   1881.   1772.   1924.   1918.   2332.   2204.
   2423.   2508.   2934.   3233.   3397.   4079.   4359.   5120.   5631.   5887.
   6252.   6538.   6904.   6447.   6563.   6532.   6252.   6234.   5692.   5656.
   5169.   5138.   4615.   4207.   4292.   3799.   3726.   3391.   3153.   3026.
   2819.   2575.   2752.   2435.   2259.   2070.   2173.   1991.   1924.   1717.
   1820.   1899.   1650.   1595.   1644.   1808.   1638.   1461.   1619.   1498.
   1546.   1388.   1394.   1583.   1644.   1595.   1668.   1656.   1571.   1492.
   1595.   1650.   1863.   1839.   1918.   1985.   2027.   2100.   2186.   2265.
   2441.   2581.   2733.   2892.   2904.   3105.   3391.   3835.   3531.   4103.
   3927.   4213.   4109.   4432.   4292.   4158.   4115.   3476.   3823.   3525.
   3701.   3184.   3007.   2612.   2727.   2575.   2234.   2484.   2137.   1991.
   2100.   1942.   1875.   1851.   1747.   1741.   1948.   1905.   1966.   1966.
   1863.   1851.   1778.   2094.   2137.   2186.   2179.   2246.   2490.   2758.
   2886.   3013.   3354.   3415.   3628.   3805.   3641.   3744.   3622.   3634.
   3549.   3476.   3427.   3044.   3184.   2959.   2752.   2569.   2490.   2368.
   2344.   2173.   1839.   1808.   1796.   1717.   1772.   1644.   1583.   1339.
   1625.   1473.   1455.   1698.   1571.   1479.   1692.   1674.   1784.   1857.
   1705.   1717.   1863.   2088.   2216.   2021.   2338.   2551.   2709.   2977.
   3354.   3500.   3555.   3403.   3921.   4158.   3641.   4079.   3963.   3677.
   3689.   3714.   3543.   3567.   3683.   3555.   3446.   3367.   3434.   3373.
   3537.   3866.   3835.   3628.   3738.   3634.   3683.   3592.   3768.   3616.
   3300.   3129.   3494.   3214.   3178.   2934.   3032.   2703.   2892.   2794.
   2806.   2593.   2782.   3056.   3147.   2904.   3379.   3166.   3500.   3634.
   3908.   3963.   4274.   4249.   4213.   4669.   4389.   4195.   3890.   3726.
   3914.   3622.   3470.   3354.   3160.   3123.   3026.   2873.   2709.   2478.
   2429.   2313.   2277.   2642.   2459.   2356.   2374.   2533.   2733.   2794.
   2898.   3117.   3287.   3330.   3665.   4243.   4000.   3969.   4475.   4639.
   4535.   4718.   4712.   5041.   4718.   4517.   4310.   3939.   3914.   3823.
   3659.   3348.   3056.   2782.   2758.   2478.   2307.   2106.   2046.   1991.
   1875.   1869.   1778.   1741.   1790.   1753.   1753.   1638.   1717.   1851.
   1552.   1826.   1814.   1705.   1735.   1607.   1619.   1698.   1613.   1577.
   1607.   1656.   1552.   1412.   1449.   1583.   1851.   1668.   1589.   1735.
   1607.   1607.   1431.   1473.   1753.   1571.   1747.   1832.   1753.   1522.
   1772.   1790.   1686.   1784.   1461.   1918.   1881.   1765.   1851.   1845.
   1857.   1802.   1698.   1656.   1692.   1930.   1899.   1905.   1942.   1893.
   1905.   1851.   1924.   2149.   2307.   2210.   2283.   2557.   2326.   2039.
   2727.   2746.   2679.   3020.   3184.   2947.   2910.   2971.   2733.   2916.
   2880.   2764.   2898.   2679.   2898.   3117.   2910.   3166.   3208.   2526.
   3117.   2642.   2612.   3026.   2764.   2703.   2624.   2697.   2618.   2654.
   2557.   2575.   2277.   2478.   2301.   2350.   2222.   2405.   2423.   2192.
   2271.   2356.   2526.   2813.   2965.   3001.   2910.   3190.   3397.   3604.
   3476.   3403.   3427.   3135.   3166.   3287.   3294.   3190.   3287.   2916.
   3482.   3007.   2940.   2861.   2612.   2794.   2453.   2648.   2819.   2533.
   2740.   2983.   3074.   2837.   3141.   3160.   3287.   3233.   3087.   3537.
   3324.   3427.   3251.   3628.   3324.   3227.   3312.   3610.   3105.   3050.
   3300.   2837.   3105.   2727.   2764.   2715.   2386.   2210.   2100.   2271.
   2033.   2088.   2046.   2100.   1930.   2131.   2070.   2033.   1997.   2100.
   1966.   2015.   2100.   1954.   2210.   1960.   1979.   2039.   2155.   2173.
   2082.   2155.   1930.   2106.   2125.   2368.   2125.   2027.   2100.   2143.
   2137.   2228.   2106.   2119.   2228.   2338.   2033.   2064.   2082.   1991.
   2234.   2039.   1893.   2204.   1948.   1893.   2173.   2021.   1960.   1863.
   2137.   2100.   2161.   1905.   1948.   1954.   1680.   1802.   1619.   1851.
   1790.   1644.   1802.   1686.   1619.   1492.   1492.   1504.   1747.   1418.
   1461.   1333.   1492.   1540.   1589.   1723.   1358.   1394.   1668.   1558.
   1698.   1808.   1869.   1863.   2033.   1991.   2393.   2192.   2405.   2295.
   2563.   2411.   2727.   2533.   2660.   2526.   2636.   2533.   2752.   2411.
   2606.   2393.   2466.   2466.   2429.   2344.   2082.   2399.   2137.   2161.
   2222.   2119.   2094.   2198.   2283.   2533.   2386.   2356.   2782.   2703.
   2733.   2606.   2825.   2898.   2886.   3123.   3068.   3026.   2733.   2989.
   3257.   3129.   2849.   3184.   2989.   3044.   3233.   2971.   3470.   3306.
   3166.   3153.   3147.   3208.   3044.   3190.   3220.   3269.   3403.   3227.
   3202.   3153.   3391.   3093.   3160.   3245.   3147.   2831.   2947.   2813.
   2770.   2569.   2660.   2715.   2673.   2435.   2362.   2319.   2380.   2039.
   2003.   2033.   1997.   2186.   1790.   1778.   1802.   1954.   1966.   1899.
   1729.   1759.   1741.   1826.   1601.   1784.   1546.   1546.   1388.   1905.
   1577.   1443.   1455.   1485.   1394.   1364.   1558.   1224.   1492.   1266.
   1364.   1364.   1224.   1272.   1248.   1528.   1364.   1309.   1333.   1315.
   1406.   1461.   1345.   1412.   1327.   1382.   1412.   1376.   1613.   1516.
   1388.   1388.   1376.   1607.   1613.   1765.   1875.   1747.   2112.   2106.
   2106.   2234.   2429.   2319.   2636.   2746.   2886.   2806.   2989.   3068.
   3166.   3038.   3068.   2886.   2679.   2934.   2934.   3056.   2539.   2916.
   2593.   2551.   2843.   2843.   2587.   3013.   2307.   2350.   2618.   2539.
   2393.   2131.   2295.   2228.   2380.   2198.   2125.   2070.   2240.   1857.
   2149.   2173.   2112.   2143.   2070.   2192.   2222.   1966.   2307.   2313.
   2119.   2222.   2234.   2192.   2204.   2283.   2374.   2137.   2411.   2472.
   2563.   2502.   2405.   2508.   2210.   2222.   2246.   2399.   2246.   2429.
   2186.   2119.   2179.   2088.   1979.   2088.   1936.   1991.   2106.   2058.
   2234.   2173.   2179.   1979.   1960.   2143.   2052.   2015.   2094.   1881.
   1869.   1875.   1881.   1674.   1893.   1589.   1692.   1668.   1680.   1912.
   1607.   1589.   1577.   1577.   1619.   1601.   1571.   1485.   1552.   1692.
   1686.   1705.   1638.   1711.   1625.   1863.   1985.   1851.   1893.   1839.
   1954.   1991.   2058.   2204.   2173.   2240.   2186.   2435.   2350.   2539.
   2514.   2466.   2770.   2636.   2922.   2989.   2697.   2977.   2855.   3020.
   3580.   3360.   3172.   3038.   2953.   3160.   3397.   3312.   3196.   3087.
   2977.   3062.   3196.   3080.   3257.   3001.   2892.   2715.   3318.   2947.
   3001.   2770.   2971.   2776.   2953.   2703.   3105.   2813.   2873.   2782.
   2831.   2825.   2794.   2995.   3093.   2880.   2435.   2819.   2849.   2502.
   2313.   2393.   2502.   2301.   2295.   2295.   2417.   2192.   2307.   2240.
   2058.   1893.   2119.   1972.   1960.   2058.   1839.   1698.   1765.   1869.
   1936.   1711.   1650.   1814.   1662.   1887.   2027.   1960.   1741.   1972.
   2003.   2058.   1985.   2125.   2046.   2246.   2246.   2307.   2709.   2599.
   2666.   2606.   2301.   2313.   2368.   2618.   2764.   2740.   2867.   3032.
   2746.   3208.   2934.   3208.   2886.   2940.   2959.   3099.   2989.   2947.
   2873.   2953.   2928.   3099.   3141.   3166.   3026.   3068.   3111.   3251.
   2837.   2849.   3013.   2959.   2965.   2679.   3093.   2673.   2673.   2746.
   2673.   2679.   2447.   2520.   2533.   2666.   2405.   2472.   2496.   2441.
   2405.   2453.   2399.   2277.   2356.   2441.   2350.   2350.   2374.   2344.


;
_cod_data_source_file            BaMnFeF7.cif
_cod_data_source_block           BaMnFeF7
_cod_depositor_comments
;
The following automatic conversions were performed:

'_symmetry_cell_setting' value 'Monoclinic' changed to 'monoclinic'
according to the built-in table from CIF Core dictionary named
'cif_core.dic' version 2.4.1 from 2010-06-29.

Automatic conversion script
Id: cif_fix_values 4624 2016-04-14 12:54:50Z antanas 
;
_cod_original_cell_volume        1088.28(11)
_cod_original_sg_symbol_H-M      'C 2/c'
_cod_database_code               3500049
_pd_proc_ls_prof_cr_factor       9.2695
_pd_proc_ls_prof_cwr_factor      10.7819
_pd_proc_ls_prof_cwr_expected    2.2279
_pd_proc_ls_prof_chi2            23.4196
_pd_proc_ls_prof_echi2           23.5780
loop_
_publ_manuscript_incl_extra_item
_publ_manuscript_incl_extra_info
_publ_manuscript_incl_extra_defn
'_pd_proc_ls_prof_cR_factor' 'Prof. R-factor CORRECTED for background' no
'_pd_proc_ls_prof_cwR_factor' 'wProf.R-factor CORRECTED for background' no
'_pd_proc_ls_prof_cwR_expected' 'wProf.Expected CORRECTED for background' no
'_pd_proc_ls_prof_chi2' 'Chi-square for all considered points' no
'_pd_proc_ls_prof_echi2' 'Chi-2 for points with Bragg contribution' no
loop_
_symmetry_equiv_pos_as_xyz
x,y,z
-x,y,-z+1/2
-x,-y,-z
x,-y,z+1/2
x+1/2,y+1/2,z
-x+1/2,y+1/2,-z+1/2
-x+1/2,-y+1/2,-z
x+1/2,-y+1/2,z+1/2
loop_
_atom_site_label
_atom_site_type_symbol
_atom_site_thermal_displace_type
_atom_site_fract_x
_atom_site_fract_y
_atom_site_fract_z
_atom_site_occupancy
_atom_site_U_iso_or_equiv
_atom_site_calc_flag
_atom_site_refinement_flags
_atom_site_disorder_assembly
_atom_site_disorder_group
Fe Fe Uiso 0.3794(2) 0.4920(9) 0.1227(3) 1.000 0.0127(8) . . . .
Mn1 Mn Uiso 0.00000 0.4614(12) 0.25000 1.000 0.0127(8) . . . .
Mn2 Mn Uiso 0.00000 0.50000 0.00000 1.000 0.0127(8) . . . .
F1 F Uiso 0.1665(9) 0.1958(19) 0.2757(9) 1.000 0.0139(14) . . . .
F2 F Uiso 0.4181(10) 0.3331(19) 0.0145(8) 1.000 0.0139(14) . . . .
F3 F Uiso 0.3778(9) 0.230(2) 0.2139(9) 1.000 0.0139(14) . . . .
F4 F Uiso 0.3738(8) 0.217(2) 0.5500(9) 1.000 0.0139(14) . . . .
F5 F Uiso 0.5116(8) 0.3635(17) 0.6594(7) 1.000 0.0139(14) . . . .
F6 F Uiso 0.2453(7) 0.4474(19) 0.0914(7) 1.000 0.0139(14) . . . .
F7 F Uiso 0.4466(8) 0.0723(18) 0.3691(9) 1.000 0.0139(14) . . . .
Ba Ba Uiso 0.19038(11) -0.0438(3) 0.12081(13) 1.000 0.0257(6) . . . .
loop_
_atom_type_symbol
_atom_type_scat_Cromer_Mann_a1
_atom_type_scat_Cromer_Mann_b1
_atom_type_scat_Cromer_Mann_a2
_atom_type_scat_Cromer_Mann_b2
_atom_type_scat_Cromer_Mann_a3
_atom_type_scat_Cromer_Mann_b3
_atom_type_scat_Cromer_Mann_a4
_atom_type_scat_Cromer_Mann_b4
_atom_type_scat_Cromer_Mann_c
_atom_type_scat_dispersion_real
_atom_type_scat_dispersion_imag
_atom_type_scat_source
Ba+2 20.18070 3.21367 19.11360 0.28331 10.90540 20.05580 0.77634 51.74600
3.02902 -1.33400 8.46000
International_Tables_for_Crystallography_Vol.C(1991)_Tables_6.1.1.4_and_6.1.1.5
Mn+2 10.80610 5.27960 7.36200 0.34350 3.52680 14.34300 0.21840 41.32350 1.08740
-0.56800 2.80800
International_Tables_for_Crystallography_Vol.C(1991)_Tables_6.1.1.4_and_6.1.1.5
Fe+3 11.17640 4.61470 7.38630 0.30050 3.39480 11.67290 0.07240 38.55660 0.97070
-1.17900 3.20400
International_Tables_for_Crystallography_Vol.C(1991)_Tables_6.1.1.4_and_6.1.1.5
F-1 3.63220 5.27756 3.51057 14.73530 1.26064 0.44226 0.94071 47.34370 0.65340
0.06900 0.05300
International_Tables_for_Crystallography_Vol.C(1991)_Tables_6.1.1.4_and_6.1.1.5
loop_
_geom_angle_atom_site_label_1
_geom_angle_atom_site_label_2
_geom_angle_atom_site_label_3
_geom_angle
_geom_angle_site_symmetry_1
_geom_angle_site_symmetry_2
_geom_angle_site_symmetry_3
_geom_angle_publ_flag
F2 Fe F3 105.5(5) . . . yes
F2 Fe F6 91.4(5) . . . yes
F2 Fe F4 84.2(5) . . 4_564 yes
F2 Fe F5 97.6(5) . . 4_564 yes
F1 Fe F2 172.1(5) 6_555 . . yes
F3 Fe F6 93.3(5) . . . yes
F3 Fe F4 170.2(6) . . 4_564 yes
F3 Fe F5 96.2(5) . . 4_564 yes
F1 Fe F3 82.1(5) 6_555 . . yes
F4 Fe F6 86.2(5) 4_564 . . yes
F5 Fe F6 164.8(5) 4_564 . . yes
F1 Fe F6 86.1(5) 6_555 . . yes
F4 Fe F5 82.5(5) 4_564 . 4_564 yes
F1 Fe F4 88.1(5) 6_555 . 4_564 yes
F1 Fe F5 83.4(5) 6_555 . 4_564 yes
F3 Mn1 F7 74.8(5) 5_455 . 5_455 yes
F3 Mn1 F3 101.6(5) 5_455 . 6_555 yes
F3 Mn1 F7 83.6(5) 5_455 . 6_555 yes
F3 Mn1 F5 125.5(4) 5_455 . 7_556 yes
F3 Mn1 F5 114.6(4) 5_455 . 8_454 yes
F3 Mn1 F7 83.6(5) 6_555 . 5_455 yes
F7 Mn1 F7 145.6(5) 5_455 . 6_555 yes
F5 Mn1 F7 70.7(4) 7_556 . 5_455 yes
F5 Mn1 F7 142.9(5) 8_454 . 5_455 yes
F3 Mn1 F7 74.8(5) 6_555 . 6_555 yes
F3 Mn1 F5 114.6(4) 6_555 . 7_556 yes
F3 Mn1 F5 125.5(4) 6_555 . 8_454 yes
F5 Mn1 F7 142.9(5) 7_556 . 6_555 yes
F5 Mn1 F7 70.7(4) 8_454 . 6_555 yes
F5 Mn1 F5 75.7(4) 7_556 . 8_454 yes
F2 Mn2 F4 91.0(4) 5_455 . 6_555 yes
F2 Mn2 F7 86.2(4) 5_455 . 6_555 yes
F2 Mn2 F2 180.00 5_455 . 7_555 yes
F2 Mn2 F4 89.0(4) 5_455 . 8_454 yes
F2 Mn2 F7 93.9(4) 5_455 . 8_454 yes
F4 Mn2 F7 86.8(5) 6_555 . 6_555 yes
F2 Mn2 F4 89.0(4) 7_555 . 6_555 yes
F4 Mn2 F4 180.00 6_555 . 8_454 yes
F4 Mn2 F7 93.2(5) 6_555 . 8_454 yes
F2 Mn2 F7 93.9(4) 7_555 . 6_555 yes
F4 Mn2 F7 93.2(5) 8_454 . 6_555 yes
F7 Mn2 F7 180.00 6_555 . 8_454 yes
F2 Mn2 F4 91.0(4) 7_555 . 8_454 yes
F2 Mn2 F7 86.2(4) 7_555 . 8_454 yes
F4 Mn2 F7 86.8(5) 8_454 . 8_454 yes
Fe F2 Mn2 128.2(6) . . 5_545 yes
Fe F3 Mn1 127.0(6) . . 5_545 yes
Fe F4 Mn2 126.2(6) 4_565 . 6_545 yes
Fe F5 Mn1 112.7(5) 4_565 . 7_556 yes
Mn1 F7 Mn2 128.7(5) 5_545 . 6_545 yes
loop_
_geom_bond_atom_site_label_1
_geom_bond_atom_site_label_2
_geom_bond_distance
_geom_bond_site_symmetry_1
_geom_bond_site_symmetry_2
_geom_bond_publ_flag
Fe F2 1.893(12) . . yes
Fe F3 1.943(13) . . yes
Fe F6 1.915(10) . . yes
Fe F4 1.890(12) . 4_564 yes
Fe F5 2.047(11) . 4_564 yes
Fe F1 1.966(13) . 6_555 yes
Mn1 F3 2.272(12) . 5_455 yes
Mn1 F7 2.006(13) . 5_455 yes
Mn1 F3 2.272(13) . 6_555 yes
Mn1 F7 2.006(13) . 6_555 yes
Mn1 F5 2.199(11) . 7_556 yes
Mn1 F5 2.199(11) . 8_454 yes
Mn2 F2 2.121(11) . 5_455 yes
Mn2 F4 2.227(11) . 6_555 yes
Mn2 F7 2.094(13) . 6_555 yes
Mn2 F2 2.121(11) . 7_555 yes
Mn2 F4 2.227(11) . 8_454 yes
Mn2 F7 2.094(13) . 8_454 yes
loop_
_geom_torsion_atom_site_label_1
_geom_torsion_atom_site_label_2
_geom_torsion_atom_site_label_3
_geom_torsion_atom_site_label_4
_geom_torsion
_geom_torsion_site_symmetry_1
_geom_torsion_site_symmetry_2
_geom_torsion_site_symmetry_3
_geom_torsion_site_symmetry_4
_geom_torsion_publ_flag
F3 Fe F2 Mn2 -24.4(10) . . . 5_545 no
F6 Fe F2 Mn2 -118.2(8) . . . 5_545 no
F2 Fe F3 Mn1 52.9(9) . . . 5_545 no
F6 Fe F3 Mn1 145.2(7) . . . 5_545 no
