#------------------------------------------------------------------------------
#$Date: 2016-12-02 13:21:57 +0200 (Fri, 02 Dec 2016) $
#$Revision: 188844 $
#$URL: file:///home/coder/svn-repositories/cod/cif/3/50/00/3500051.cif $
#------------------------------------------------------------------------------
#
# This file is available in the Crystallography Open Database (COD),
# http://www.crystallography.net/
#
# All data on this site have been placed in the public domain by the
# contributors.
#
data_3500051
loop_
_publ_author_name
'Armel Le Bail'
_publ_section_title
;
 BaZnGaF7 fluoride glass recrystallizing at 500 C in the BaMnFeF7
 structure type
;
_journal_name_full               'Personal communication to COD'
_journal_year                    2016
_chemical_compound_source
;
Fluoride glass of composition BaZnGaF7 recrystallized at 500 C
;
_chemical_formula_sum            'Ba F7 Ga Zn'
_chemical_formula_weight         405.448
_space_group_IT_number           14
_symmetry_cell_setting           monoclinic
_symmetry_Int_Tables_number      14
_symmetry_space_group_name_Hall  '-P 2ybc'
_symmetry_space_group_name_H-M   'P 1 21/c 1'
_cell_angle_alpha                90.00000
_cell_angle_beta                 95.021(3)
_cell_angle_gamma                90.00000
_cell_formula_units_Z            4
_cell_length_a                   5.4045(4)
_cell_length_b                   10.7701(8)
_cell_length_c                   9.0421(7)
_cell_measurement_temperature    295
_cell_volume                     524.29(7)
_computing_structure_refinement  FULLPROF
_diffrn_ambient_temperature      295
_diffrn_radiation_monochromator  graphite
_diffrn_radiation_probe          x-ray
_diffrn_radiation_type           CuK\a
_diffrn_radiation_wavelength     1.54184
_pd_meas_2theta_range_inc        0.020000
_pd_meas_2theta_range_max        79.98000
_pd_meas_2theta_range_min        10.00000
_pd_meas_number_of_points        3500
_pd_proc_2theta_range_inc        0.020000
_pd_proc_2theta_range_max        80.0002
_pd_proc_2theta_range_min        10.0202
_pd_proc_ls_prof_R_factor        6.9103
_pd_proc_ls_prof_wR_expected     1.4603
_pd_proc_ls_prof_wR_factor       9.7086
_pd_proc_wavelength              1.540560
_refine_ls_number_parameters     45
_refine_ls_number_reflns         725
_refine_ls_number_restraints     0
_refine_ls_R_I_factor            5.6456
_iucr_refine_instructions_details
;
Fullprof .pcr file, modified to fit inside 80 columns
followed by the .dat file



COMM  BaZnGaF7 glass recrystallizing at 500 C in the BaMnFeF7 structure type
! Current global Chi2 (Bragg contrib.) =      44.76    
! Files => DAT-file: bazngaf7.dat,  PCR-file: bazngaf7
!Job Npr Nph Nba Nex Nsc Nor Dum Iwg Ilo Ias Res Ste Nre Cry Uni Cor Opt Aut
   0   5   1  15   8   0   1   1   0   0   1   0   0   0   0   0   0   0   0
!
!Ipr Ppl Ioc Mat Pcr Ls1 Ls2 Ls3 NLI Prf Ins Rpa Sym Hkl Fou Sho Ana
   0   0   1   0   2   0   4   0   0  -3   0  -1   1   0   2   1   1
!
! Lambda1  Lambda2    Ratio    Bkpos    Wdt    Cthm     muR   AsyLim   Rpolarz
  2nd-muR -> Patt# 1
 1.540560 1.544390  0.53000   90.000 12.0000  0.7998  0.0000   90.00    0.0000
  0.0000
!
!NCY  Eps  R_at  R_an  R_pr  R_gl     Thmin       Step       Thmax    PSD    
Sent0
 30  0.01  0.30  0.30  0.30  0.60     10.0000   0.020000    79.9800   0.000  
 0.000
!
!2Theta/TOF/E(Kev)   Background  for Pattern#  1
        10.2455      5174.3042          0.00
        10.9821      4563.3428          0.00
        11.7857      4114.1064          0.00
        13.7277      3404.3130          0.00
        15.4688      2865.2292          0.00
        17.2768      2380.0544          0.00
        20.5580      1957.7720          0.00
        22.5000      1840.9707          0.00
        28.4598      1634.3221          0.00
        32.8795      1517.5204          0.00
        36.2277      1418.6884          0.00
        49.6875      1283.9178          0.00
        60.5357      1059.2994          0.00
        68.9732      1059.2994          0.00
        79.0179      1167.1161          0.00
! 
! Excluded regions (LowT  HighT) for Pattern#  1
       23.42       24.00
       25.28       25.70
       30.28       30.74
       32.18       32.73
       35.42       36.19
       38.60       38.85
       41.14       41.61
       80.00      180.00
! 
!
      45    !Number of refined parameters
!
!  Zero    Code    SyCos    Code   SySin    Code  Lambda     Code MORE
 ->Patt# 1
 -0.02018   21.0  0.00000    0.0  0.00000    0.0 0.000000    0.00   0
!----------------------------------------------------------------------
---------
!  Data for PHASE number:   1  ==> Current R_Bragg for Pattern#  1:    
 5.65
!-----------------------------------------------------------------------
--------
  "BaZnGaF7"
!
!Nat Dis Ang Pr1 Pr2 Pr3 Jbt Irf Isy Str Furth       ATZ    Nvk Npr More
  10   0   0 1.0 0.0 0.0   0   0   0   0   0          2.595   0   5   1
!
!Jvi Jdi Hel Sol Mom Ter  Brind   RMua    RMub    RMuc   Jtyp  Nsp_Ref 
Ph_Shift N_Domains
   2   3   0   0   0   0  1.0000  0.0000  0.0000  0.0000    0      0    
  0      0
!
! Max_dst(dist) (angles)  Bond-Valence Calc.
      3.5000    180.0000        BVS
!  N_cations   N_anions     Tolerance(%) / Name or cations/ and Anions
       3           1               80.00
BA+2 ZN+2 GA+3
F-1 
!
P 21/C                   <--Space group symbol
!Atom   Typ       X        Y        Z     Biso       Occ     In Fin N_t Spc
 /Codes
Ba     BA+2    0.22327  0.16867  0.04094  1.47199   0.04000   0   0   0    1  
                121.00   131.00   141.00   151.00      0.00
Zn     ZN+2    0.81511  0.06299  0.38644  1.11986   0.04000   0   0   0    2  
                161.00   171.00   181.00   191.00      0.00
Ga     GA+3    0.68713  0.12088  0.76367  1.14377   0.04000   0   0   0    3  
                201.00   211.00   221.00   231.00      0.00
F1     F-1     0.41695  0.27818  0.27747  1.28923   0.04000   0   0   0    4  
                241.00   251.00   261.00   271.00      0.00
F2     F-1     0.50726  0.02890  0.26293  1.28923   0.04000   0   0   0    4  
                281.00   291.00   301.00   271.00      0.00
F3     F-1     0.13633  0.40604  0.01043  1.28923   0.04000   0   0   0    4  
                311.00   321.00   331.00   271.00      0.00
F4     F-1     0.98297  0.47817  0.27144  1.28923   0.04000   0   0   0    4  
                341.00   351.00   361.00   271.00      0.00
F5     F-1     0.11354  0.73488  0.21818  1.28923   0.04000   0   0   0    4  
                371.00   381.00   391.00   271.00      0.00
F6     F-1     0.32843  0.64533  0.94434  1.28923   0.04000   0   0   0    4  
                401.00   411.00   421.00   271.00      0.00
F7     F-1     0.71960  0.40598  0.46106  1.28923   0.04000   0   0   0    4  
                431.00   441.00   451.00   271.00      0.00
!-------> Profile Parameters for Pattern #  1
!  Scale        Shape1      Bov      Str1      Str2      Str3   Strain-Model
  1.7603       0.60613   0.00000   0.00000   0.00000   0.00000       0
    11.00000    31.000     0.000     0.000     0.000     0.000
!       U         V          W           X          Y        GauSiz   LorSiz
 Size-Model
   0.084099  -0.008055   0.026726   0.000000   0.000000   0.000000   0.000000
    0
     51.000      0.000     41.000      0.000      0.000      0.000      0.000
!     a          b         c        alpha      beta       gamma      #Cell 
Info
   5.404452  10.770140   9.042103  90.000000  95.020576  90.000000   
   61.00000   71.00000   81.00000    0.00000   91.00000    0.00000
!  Pref1    Pref2      Asy1     Asy2     Asy3     Asy4  
  1.00000  0.00000  0.05225  0.02378  0.00000  0.00000
     0.00     0.00   101.00   111.00     0.00     0.00
!  2Th1/TOF1    2Th2/TOF2  Pattern to plot
      10.000      79.980       1




Fullprof .dat file


      10.00    0.02  79.98
   5000.   5476.   5053.   5340.   4766.   5121.   5249.   5045.   5106.   4856.
   4788.   4917.   4939.   5023.   5226.   4924.   4962.   4977.   4879.   5317.
   4562.   5075.   4977.   4841.   5264.   4834.   4766.   5000.   5030.   4879.
   4826.   4773.   4856.   4977.   4464.   4683.   4970.   4652.   4720.   4569.
   4584.   4622.   4728.   4751.   4509.   4471.   4479.   4871.   4554.   4630.
   4539.   4751.   4690.   4947.   4365.   4554.   4713.   4320.   4381.   4403.
   4539.   4668.   4509.   4350.   4403.   4607.   4358.   4229.   4313.   4569.
   4562.   4245.   4864.   4396.   4169.   4086.   4403.   4328.   4229.   4426.
   4033.   3814.   3950.   4146.   4282.   3995.   4343.   4252.   3980.   3980.
   4131.   4373.   3973.   3739.   4396.   4086.   4063.   4071.   4116.   4222.
   4184.   4396.   4003.   3875.   3655.   4086.   3829.   4146.   4101.   3988.
   4026.   4131.   4245.   3807.   3852.   3980.   4033.   3897.   3958.   3807.
   4124.   3973.   3988.   3995.   4101.   4547.   3859.   3761.   4388.   4282.
   4109.   4237.   4328.   4479.   4569.   4932.   5219.   4902.   5075.   5310.
   5612.   5249.   5166.   4992.   4162.   4524.   4177.   3829.   3942.   3527.
   4078.   3807.   3595.   3436.   3799.   3859.   3678.   3995.   3693.   3293.
   3474.   3618.   3550.   3784.   3497.   3414.   3693.   3512.   3580.   3746.
   3572.   3414.   3474.   3384.   3240.   3678.   3474.   3489.   3640.   3527.
   3217.   3595.   3331.   3467.   2991.   3293.   3436.   3263.   3588.   3376.
   3376.   3233.   3346.   3399.   3323.   3603.   3376.   3361.   3255.   3391.
   3240.   3172.   3014.   2938.   3195.   3217.   3059.   3391.   3089.   3467.
   3323.   3014.   3180.   3384.   3217.   3270.   3051.   2893.   3202.   3202.
   3149.   3097.   3134.   3180.   3134.   3119.   3081.   3157.   3119.   2900.
   3180.   3021.   2991.   2900.   3248.   3157.   3142.   3089.   2938.   3014.
   3029.   2946.   3074.   3014.   3489.   3074.   2862.   3014.   2930.   2915.
   2711.   3081.   2847.   2953.   3270.   2930.   2666.   3172.   3044.   2915.
   2666.   2742.   2870.   2659.   2847.   2704.   2757.   2711.   2862.   3059.
   2930.   2787.   2840.   2681.   2734.   3021.   3112.   2893.   2643.   2968.
   2606.   2870.   2651.   2908.   2779.   2915.   2953.   2659.   2538.   2334.
   2757.   2840.   2968.   2711.   2885.   2598.   2613.   2847.   2787.   2666.
   2606.   2772.   2409.   2613.   2900.   2659.   2794.   2742.   3051.   2651.
   2810.   3104.   2885.   2923.   3142.   3195.   3029.   3006.   3520.   3610.
   3678.   4252.   4207.   4282.   3655.   3301.   3187.   3263.   2787.   2749.
   2794.   2628.   2447.   2643.   2817.   2462.   2636.   2689.   2538.   2825.
   2545.   2651.   2621.   2507.   2628.   2794.   2568.   2492.   2568.   2424.
   2553.   2447.   2379.   2402.   2477.   2523.   2424.   2440.   2470.   2719.
   2455.   2568.   2326.   2455.   2553.   2545.   2296.   2288.   2402.   2553.
   2372.   2440.   2341.   2530.   2402.   2462.   2334.   2334.   2417.   2568.
   2440.   2243.   2372.   2545.   2455.   2387.   2507.   2394.   2515.   2462.
   2417.   2372.   2507.   2198.   2696.   2296.   2432.   2696.   2341.   2636.
   2364.   2311.   2447.   2704.   2606.   2583.   2417.   2651.   2991.   3006.
   3066.   3195.   3255.   3452.   3655.   4162.   4622.   5317.   5861.   6450.
   6941.   6435.   5899.   5332.   4471.   3927.   3542.   3353.   3149.   2764.
   2553.   2847.   2893.   2606.   2862.   2749.   2893.   2477.   2832.   2696.
   2681.   2621.   2825.   2304.   2689.   2643.   2591.   2855.   2855.   2840.
   2681.   3210.   3323.   3165.   3550.   4124.   4751.   5211.   5098.   5770.
   5597.   5053.   4048.   3618.   3497.   2794.   2530.   2628.   2228.   2387.
   2220.   2334.   2515.   2477.   2606.   2523.   2613.   2946.   2840.   3180.
   3323.   3278.   4003.   4373.   4743.   4668.   4313.   4199.   3467.   3210.
   2923.   2832.   2568.   2643.   2628.   2447.   2379.   2575.   2228.   2379.
   2492.   2326.   2462.   2243.   2500.   2507.   2923.   2832.   2749.   2953.
   2991.   2900.   2998.   3081.   2825.   2900.   2628.   2893.   2832.   2628.
   2727.   2802.   2568.   2568.   2606.   2613.   2492.   2538.   2311.   2175.
   2100.   2107.   1835.   1654.   1941.   1881.   2175.   1896.   1873.   2032.
   1767.   2024.   1926.   2220.   2130.   1888.   2062.   2092.   2175.   2304.
   1911.   2100.   1956.   2032.   2009.   1971.   2266.   2273.   2273.   2387.
   2220.   2379.   2492.   2598.   2908.   3323.   3134.   3323.   3512.   3701.
   3852.   3942.   4773.   4932.   5823.   7001.   8383.   9456.   9909.   9788.
   9569.   8013.   6850.   5476.   4607.   3678.   3504.   3029.   2840.   2915.
   2772.   2598.   2757.   2455.   2304.   2220.   2107.   2009.   1979.   1964.
   1956.   1994.   2017.   1866.   2115.   2017.   1858.   1790.   2001.   2190.
   1866.   1956.   1858.   1971.   2100.   1737.   1858.   1858.   1684.   1737.
   1775.   1737.   1850.   1926.   1745.   1843.   1979.   1903.   1813.   1971.
   1903.   1798.   1820.   1684.   1752.   1737.   1903.   2032.   1888.   1873.
   1798.   1903.   1941.   1730.   1933.   2039.   1820.   1903.   1692.   1828.
   1843.   1737.   1866.   2024.   1866.   1994.   2009.   1911.   2281.   2137.
   2205.   2266.   2288.   2492.   2628.   2794.   2787.   2560.   2560.   2681.
   2643.   2530.   2470.   2764.   2893.   3195.   3217.   4139.   4358.   4705.
   5242.   5748.   6382.   6201.   6186.   5793.   5272.   4652.   4162.   3791.
   3406.   3059.   2938.   2462.   2621.   2402.   2643.   2696.   2794.   2417.
   2568.   2583.   2364.   2628.   2575.   2681.   2794.   2704.   2961.   3240.
   3338.   3890.   3927.   4554.   4690.   5294.   6269.   7205.   8157.   9373.
  10815.  13436.  15438.  19169.  21895.  26140.  31208.  34961.  41774.  47385.
  51683.  51962.  51011.  46177.  41857.  35875.  32257.  28285.  26616.  24637.
  23625.  21842.  19561.  17575.  14418.  12560.  10566.   8799.   7673.   6216.
   6080.   5226.   4751.   4365.   4041.   3950.   3693.   3444.   3633.   3353.
   3399.   3444.   3421.   3474.   3739.   4154.   4146.   4645.   4917.   5732.
   6080.   7303.   7900.   9222.   9705.  10604.  11963.  11752.  11654.  11148.
  10408.  10732.  10823.  11578.  12855.  14274.  16344.  18874.  21993.  25105.
  29123.  34523.  41600.  50686.  62287.  76017.  87633.  95707.  99000.  94400.
  88094.  75307.  60988.  48027.  36321.  26057.  19622.  14645.  11238.   8905.
   7522.   6926.   6095.   5302.   4811.   4826.   4532.   4464.   4381.   4592.
   4758.   4743.   5219.   5710.   6186.   7477.   8247.  10181.  11850.  13376.
  18308.  22726.  29032.  33534.  37884.  38949.  39417.  38254.  34387.  29659.
  25528.  22288.  19312.  17666.  15861.  13655.  12326.  10158.   8323.   6760.
   5513.   4403.   4313.   3595.   3157.   3112.   3172.   2674.   2477.   2379.
   2515.   2432.   2145.   2122.   2024.   1949.   2447.   2243.   2190.   2213.
   2160.   1896.   2288.   2100.   2409.   2288.   2304.   2409.   2372.   2387.
   2183.   2749.   2817.   2968.   2991.   3127.   3285.   3316.   3255.   3520.
   3406.   3361.   3890.   3867.   4297.   4554.   4834.   5513.   6722.   7870.
   9297.  11329.  14584.  18799.  23141.  27046.  29931.  31751.  30445.  28390.
  24674.  20573.  16314.  12401.  10121.   7998.   6593.   5408.   4592.   3671.
   3663.   3361.   3014.   2666.   2515.   2462.   2372.   2130.   2175.   2077.
   2001.   2137.   1805.   1775.   1707.   1662.   2001.   1616.   1790.   1971.
   1707.   1737.   1752.   1918.   1677.   1911.   1881.   1767.   2205.   2190.
   1994.   2122.   2122.   2273.   2523.   2281.   2779.   2560.   2727.   2817.
   2515.   2636.   2840.   2643.   2794.   2651.   2711.   2893.   2719.   2734.
   2915.   2968.   3293.   3210.   3459.   3406.   3142.   3293.   3210.   3368.
   3180.   3225.   3837.   4116.   4819.   4879.   6065.   7288.   8081.  10740.
  12401.  15438.  19093.  20505.  22363.  21910.  21261.  18950.  17129.  14599.
  12122.   9380.   7779.   6820.   5808.   4645.   4728.   4010.   3776.   3701.
   3066.   2976.   3036.   3081.   2764.   3036.   3353.   3202.   3353.   3489.
   3527.   3822.   4328.   4577.   4909.   4758.   5249.   5649.   5657.   5853.
   5634.   5302.   5219.   5158.   4630.   4282.   4192.   4169.   4426.   4985.
   5234.   6223.   6775.   7983.   8746.   9297.   9864.  10657.  11367.  13300.
  15294.  16253.  17288.  16978.  16654.  16895.  14848.  13285.  12349.  10045.
   8746.   8059.   6359.   5619.   5098.   4388.   3550.   2991.   3210.   2893.
   2364.   2213.   2145.   2168.   2198.   2190.   2085.   2356.   1994.   2455.
   2409.   2749.   2802.   2991.   3588.   3701.   4169.   4509.   5264.   6125.
   6624.   7915.   8285.   8799.   8980.   9093.   9547.   9637.   9630.   9093.
   8270.   7621.   7107.   6352.   5408.   4864.   4131.   3512.   3474.   3225.
   3165.   3285.   3535.   3595.   3973.   3686.   3580.   3474.   3180.   2991.
   2930.   2575.   2243.   1979.   1813.   1775.   1813.   1873.   1813.   1684.
   1571.   1443.   1707.   1563.   1745.   1760.   1828.   1722.   1745.   1556.
   1601.   1677.   1662.   2168.   1903.   1971.   2213.   2568.   2591.   2930.
   3081.   3701.   4124.   5279.   5770.   7205.   9048.  12092.  15287.  19833.
  23202.  26903.  28458.  28730.  28738.  26540.  22628.  19108.  15687.  12258.
   9652.   7122.   5710.   4562.   3655.   3580.   2908.   2666.   2364.   2190.
   2205.   2326.   2198.   2153.   2205.   1986.   2153.   2077.   2281.   2364.
   2787.   2840.   3127.   3421.   3799.   3822.   4479.   4705.   5075.   6087.
   7062.   7832.  10083.  12704.  15385.  18595.  21842.  24841.  26268.  26812.
  25097.  23134.  21351.  17469.  14796.  12590.  10611.   9033.   7681.   6593.
   5861.   5400.   5068.   4486.   4056.   3837.   3429.   3157.   3066.   3029.
   2946.   2749.   2689.   2840.   2817.   2817.   3081.   3248.   3489.   4010.
   4335.   5158.   5899.   6563.   7923.   8648.   8300.   8625.   8821.   8278.
   7628.   6911.   6080.   5536.   4607.   4894.   4509.   4010.   4668.   4479.
   4532.   4373.   4456.   4056.   3527.   3014.   3066.   2553.   2523.   2606.
   2372.   2205.   2153.   2402.   2137.   2500.   2326.   2832.   2583.   2961.
   2825.   3104.   2862.   3270.   3331.   2938.   3006.   2923.   2976.   2885.
   2575.   2447.   2787.   2477.   2553.   2364.   2198.   2183.   2236.   2032.
   2153.   1714.   1767.   1881.   1692.   1646.   1654.   1631.   1654.   1714.
   1390.   1359.   1420.   1699.   1677.   1707.   1745.   1790.   2001.   2085.
   2432.   2696.   2387.   2462.   2681.   2651.   2742.   2523.   2341.   2319.
   2402.   2213.   1964.   1813.   1873.   1609.   1896.   1518.   1624.   1662.
   1699.   1488.   1435.   1609.   1866.   1956.   2190.   2137.   2341.   2356.
   2107.   2258.   2243.   2417.   2220.   2273.   2402.   2659.   2583.   2847.
   2991.   3467.   3708.   4192.   4751.   5143.   5060.   4600.   4713.   4577.
   3988.   3527.   3467.   2545.   2591.   2205.   2039.   1918.   1767.   1858.
   1752.   1495.   1427.   1563.   1556.   1579.   1571.   1707.   1699.   1594.
   1850.   2258.   2190.   2409.   2341.   2659.   2651.   2500.   2696.   2311.
   2787.   2553.   2742.   2704.   2817.   3036.   3157.   3731.   4207.   4871.
   6435.   7205.   8451.   9917.  10121.  10400.  10468.  10083.   9433.   8927.
   7953.   6775.   5967.   5023.   4139.   3633.   3338.   3021.   2772.   2991.
   2515.   3452.   3338.   3640.   3648.   4071.   4328.   4486.   5053.   4539.
   5106.   5423.   6072.   6556.   7681.   9116.  10053.  10559.  11488.  13527.
  14614.  16472.  15815.  17469.  16555.  15294.  14176.  12432.  10468.   9139.
   8368.   7492.   6518.   5649.   5717.   5748.   5143.   5166.   5015.   4841.
   4887.   5121.   4796.   4381.   4252.   4282.   3958.   3663.   3474.   3217.
   3165.   2794.   2900.   2575.   2606.   2606.   2787.   2538.   2908.   3104.
   3165.   3588.   3814.   4381.   4834.   6080.   7319.   7855.   9093.   9660.
  10536.  10324.   9713.   9758.   9214.   8376.   7553.   6306.   5989.   5672.
   5347.   4902.   4743.   4645.   5015.   5687.   5793.   6299.   7251.   8882.
  10581.  13134.  14969.  16427.  17265.  16570.  16865.  14713.  13459.  11193.
  10340.   9184.   7847.   6541.   5868.   5800.   5672.   5257.   6087.   6752.
   6918.   8489.  10241.  11571.  12613.  12787.  14161.  12930.  12130.  11737.
  11208.   9864.   8202.   7583.   6563.   5060.   4871.   4652.   3927.   3995.
   4282.   4071.   3822.   3958.   3799.   4509.   5121.   5385.   5914.   6903.
   7077.   7779.   8882.   9811.  11050.  11299.  12432.  12326.  11790.  11850.
  11155.  11314.  10468.   9010.   8874.   8217.   7719.   7130.   6873.   6880.
   6171.   6223.   6405.   5891.   5748.   5816.   5317.   5204.   4766.   4622.
   4524.   4358.   4169.   4433.   4056.   4184.   3973.   4033.   4116.   4124.
   4086.   4305.   4758.   4690.   5362.   5921.   6616.   7417.   8081.   9728.
  10037.   9992.   9909.   9811.   9909.   8738.   8225.   6933.   6495.   5627.
   4955.   3769.   3935.   3293.   2878.   2591.   2568.   2764.   2409.   2500.
   2356.   2530.   2613.   2749.   2878.   2938.   3006.   3195.   3217.   3572.
   3542.   3950.   4146.   4728.   5589.   5483.   6072.   5770.   5332.   5377.
   5189.   5060.   4184.   4184.   3618.   3301.   2938.   2961.   2938.   2893.
   2742.   2878.   2734.   2817.   3180.   3384.   3633.   3769.   3550.   3633.
   3980.   3980.   4320.   4411.   4630.   5038.   5634.   5997.   6593.   7341.
   8383.   9124.   9750.  10007.   9924.  10000.  10634.   9524.   8988.   8587.
   7583.   6442.   5876.   5106.   4396.   3905.   3572.   3074.   2764.   2696.
   2334.   2477.   2515.   2515.   2326.   2734.   2470.   2288.   2515.   2477.
   2349.   2334.   2485.   2530.   2100.   1941.   1926.   1798.   1971.   1941.
   1843.   1684.   1994.   1714.   1964.   2069.   1896.   2130.   2455.   2598.
   3044.   3195.   3686.   4328.   5038.   5400.   5430.   5725.   5997.   5393.
   5574.   5642.   5332.   5294.   4834.   4932.   4683.   4418.   4736.   5106.
   5279.   6223.   6948.   8927.   8467.   9599.   9660.   9373.   9509.   8973.
   8618.   7915.   7500.   6548.   6201.   5664.   5287.   4418.   3550.   3580.
   3059.   2847.   2666.   2591.   2606.   2810.   2787.   2500.   2606.   2553.
   2364.   2153.   2039.   1979.   1858.   1624.   1631.   1835.   1707.   1503.
   1586.   1579.   1427.   1480.   1571.   1488.   1752.   1586.   1488.   1850.
   2032.   2001.   2213.   2364.   2538.   3044.   3308.   4010.   4569.   4622.
   5158.   5664.   5529.   5438.   5785.   5423.   5430.   5128.   5612.   5589.
   6737.   6775.   7220.   8096.   8595.   8406.   8791.   8565.   8595.   8172.
   7522.   7092.   6246.   5415.   4803.   4026.   3671.   3066.   3202.   2470.
   2402.   2228.   1994.   2168.   2364.   2205.   2258.   2243.   2628.   2742.
   2930.   3172.   3633.   4010.   4985.   5634.   6722.   7613.   8973.   9773.
   9856.  10355.  10989.  10143.   9939.   9486.   9826.   9244.   8399.   8618.
   8346.   8225.   8429.   9879.   9758.  10891.  10695.  10861.  10226.  10287.
   8769.   8180.   7794.   6971.   6458.   5272.   4902.   4501.   4169.   3814.
   4003.   3414.   3368.   2961.   2961.   2606.   2356.   2417.   2001.   2145.
   1813.   1707.   1699.   1752.   1616.   1533.   1594.   1556.   1798.   1616.
   1918.   1918.   2085.   1941.   1767.   1873.   1692.   1707.   1699.   1707.
   1586.   1881.   1579.   1571.   1450.   1722.   1813.   1911.   1752.   1956.
   1979.   2054.   2092.   2085.   2288.   2492.   2273.   2137.   2213.   2122.
   2024.   2470.   2591.   2507.   2696.   2908.   3180.   3716.   3474.   4237.
   4162.   4554.   4690.   4652.   4751.   5257.   5438.   5581.   5393.   5279.
   4728.   4826.   4562.   4403.   3980.   3331.   3104.   3006.   2515.   2273.
   2001.   1684.   1662.   1594.   1511.   1594.   1548.   1178.   1488.   1412.
   1405.   1299.   1443.   1518.   1594.   1450.   1699.   1730.   1760.   1699.
   1813.   1624.   1888.   2145.   2205.   2243.   2175.   2568.   2764.   2885.
   3625.   3761.   4698.   5536.   7047.   7719.   8451.   9305.   9985.  10415.
  11117.  11888.  11563.  11971.  11639.  10498.   9924.   9116.   8066.   7062.
   6964.   5944.   5325.   4426.   3905.   3285.   3202.   3029.   3172.   2870.
   2666.   2628.   2772.   2470.   2485.   2575.   2417.   2515.   2258.   2440.
   2175.   2190.   2364.   3006.   2742.   3489.   4131.   4615.   5302.   5634.
   6752.   6782.   7069.   7137.   7258.   7296.   7515.   6752.   7137.   6291.
   5989.   5370.   5234.   4766.   4773.   4192.   4048.   3769.   3723.   3655.
   3512.   3557.   2953.   3353.   3157.   3157.   3165.   3686.   3497.   3950.
   4139.   4433.   4524.   4705.   4871.   4698.   4622.   4743.   4131.   3791.
   3316.   3459.   3240.   3044.   2779.   2462.   2696.   2674.   2651.   2681.
   2734.   2719.   2674.   2878.   2998.   2968.   3323.   3527.   3565.   3452.
   3452.   3678.   3467.   3761.   3837.   3693.   3512.   3489.   3784.   3844.
   3603.   3920.   4116.   4381.   4962.   5755.   6238.   6707.   7485.   8059.
   8142.   7945.   7522.   7522.   7621.   7160.   6563.   6480.   6306.   5846.
   5325.   4887.   5106.   4788.   4547.   4494.   4887.   5030.   5272.   5868.
   5340.   5529.   5393.   5332.   5483.   5158.   4939.   4917.   4879.   4615.
   4373.   4426.   4486.   4131.   3739.   4214.   3693.   3701.   3686.   3776.
   3905.   3429.   3353.   3255.   3044.   2878.   3014.   2840.   2606.   3006.
   3119.   3323.   3588.   3852.   4396.   4622.   5234.   5770.   6118.   6518.
   6503.   7228.   7432.   7492.   7590.   7130.   7235.   7696.   7991.   7666.
   7855.   7522.   6767.   6888.   6480.   5959.   5370.   5816.   5468.   5498.
   5989.   5891.   6405.   6541.   6246.   6004.   6246.   6548.   6201.   5393.
   5415.   5136.   4917.   4222.   4245.   3731.   3301.   3112.   3278.   3391.
   2961.   3059.   2908.   3452.   3384.   4003.   3791.   4328.   4607.   4713.
   5174.   5053.   4939.   4796.   4992.   4207.   4449.   4456.   4328.   3935.
   3995.   3746.   3837.   3822.   3723.   3829.   3995.   4313.   4584.   4705.
   4607.   4600.   4939.   5196.   5249.   5423.   5521.   5868.   6337.   6722.
   7470.   8217.   9584.  10453.  10732.  11080.  13081.  12583.  12537.  12228.
  11722.  11616.  10830.  11012.   9834.   9373.   8550.   8761.   8293.   7809.
   6986.   7530.   7092.   6858.   7198.   6556.   6525.   6541.   5778.   5287.
   5400.   4841.   5166.   4078.   3572.   3542.   3172.   2976.   2560.   2266.
   2168.   2032.   1911.   1677.   1480.   1692.   1677.   1480.   1563.   1563.
   1420.   1412.   1533.   1511.   1526.   1533.   1541.   1579.   1624.   1699.
   1646.   1820.   1850.   1956.   2220.   2334.   2817.   2802.   2961.   3195.
   3489.   3406.   3550.   3565.   3255.   3633.   3331.   3678.   3353.   3640.
   3316.   3754.   3436.   3648.   3875.   4441.   4449.   5242.   5023.   5793.
   6216.   6390.   6835.   7326.   7092.   6745.   6684.   6692.   5695.   5717.
   5393.   4796.   4592.   3995.   4116.   3588.   3134.   2802.   2727.   2666.
   2364.   1933.   1964.   2122.   1971.   1790.   1669.   1888.   2032.   1888.
   1971.   1896.   2032.   2356.   2379.   2455.   2447.   2938.   2923.   2636.
   2847.   3006.   2847.   2817.   2832.   2915.   2794.   2930.   3021.   3149.
   3648.   3361.   3731.   3655.   3784.   3837.   3799.   3580.   3489.   3482.
   3255.   3089.   2923.   2764.   2523.   2651.   2394.   2440.   2236.   2092.
   2062.   2024.   1805.   1813.   1813.   1903.   2047.   1760.   1767.   2017.
   1941.   1828.   1805.   1714.   1986.   1911.   2039.   1964.   1986.   2266.
   2387.   2417.   2734.   3097.   3059.   3014.   3119.   3112.   3429.   2983.
   2704.   2757.   2961.   3014.   2772.   2961.   2968.   3414.   3338.   3081.
   3542.   3769.   3761.   3565.   3686.   3686.   3595.   3157.   3535.   3414.
   3157.   3293.   2666.   2545.   2440.   2153.   2205.   2228.   1730.   1858.
   1745.   1677.   1579.   1435.   1586.   1511.   1775.   1443.   1337.   1556.
   1352.   1579.   1631.   1359.   1443.   1292.   1254.   1412.   1110.   1382.
   1186.   1072.   1178.   1186.   1284.   1020.   1050.   1133.   1042.   1012.
    959.    974.   1148.   1133.   1050.   1216.   1065.   1284.   1125.   1390.
   1284.   1390.   1299.   1586.   1850.   1616.   1873.   2047.   2220.   2205.
   2462.   2794.   2734.   2832.   2825.   2847.   3225.   3217.   3353.   4169.
   4411.   4766.   5068.   5536.   5914.   5702.   5770.   5513.   5634.   5710.
   5551.   5574.   5264.   5310.   5377.   5106.   5226.   5174.   5106.   4894.
   4758.   4864.   4819.   4728.   4970.   4841.   4758.   4955.   5121.   4939.
   5264.   5279.   4924.   4977.   5128.   5219.   4683.   4856.   4849.   4796.
   4758.   4554.   4962.   4177.   4879.   4501.   4154.   4297.   4033.   4237.
   4411.   3867.   4131.   4290.   4320.   4048.   4222.   4358.   4297.   4365.
   4320.   4116.   4350.   4373.   3965.   4418.   3912.   4071.   4449.   4214.
   4350.   4698.   5053.   4819.   5075.   5529.   5347.   5272.   5045.   5083.
   4894.   4637.   4260.   4403.   4131.   3973.   3950.   3527.   3852.   3625.
   3391.   2885.   3029.   2840.   3029.   2749.   2817.   3278.   3104.   3165.
   3097.   3157.   3391.   3429.   3210.   3489.   3807.   4010.   4320.   4569.
   4577.   4396.   4803.   4320.   3897.   4418.   3927.   3655.   3640.   3202.
   3021.   2998.   3157.   2727.   2583.   2372.   2198.   2394.   2198.   2326.
   2069.   2236.   2085.   2122.   2100.   1903.   2319.   1971.   1979.   2130.
   2107.   2054.   2220.   2379.   2220.   2168.   2273.   2477.   2470.   2659.
   2651.   2485.   2198.   2273.   2145.   2115.   2387.   2183.   2092.   2085.
   2236.   2054.   2175.   1843.   2107.   1820.   1926.   1692.   1790.   1903.
   2062.   2304.   2334.   2168.   2734.   2492.   2500.   2583.   2666.   2613.
   2606.   2651.   2659.   2500.   2674.   2372.   2492.   2364.   2364.   2364.
   2455.   2689.   2432.   2394.   2477.   2628.   2621.   2598.   2387.   2440.
   2613.   2500.   2908.   2507.   2787.   2794.   3059.   2613.   2485.   2553.
   2364.   2440.   2379.   2515.   2530.   2394.   2100.   2243.   2273.   1949.
   2069.   2001.   2183.   2069.   2470.   2394.   2643.   2855.   3180.   3520.
   3776.   4124.   4063.   4924.   5249.   4962.   5204.   5090.   5023.   5355.
   5226.   5068.   5529.   5400.   5831.   5453.   5748.   5317.   5279.   4841.
   4449.   4154.   4245.   3852.   3557.   3474.   3716.   3127.   3149.   3014.
   2847.   2689.   2704.   2598.   2696.   2847.   2802.   3119.   2998.   3127.
   3165.   3021.   3210.   3036.   3217.   3149.   3263.   3331.   2968.   3270.
   3142.   3248.   3263.   3127.   3112.   2862.   2953.   2832.   2560.   2500.
   2417.   2424.   2364.   2145.   2100.   2153.   2137.   1971.   1722.   1850.
   1714.   2130.   1828.   2085.   1790.   1790.   1730.   2069.   2024.   1964.
   1790.   2122.   2334.   2288.   2462.   2727.   2946.   3014.   2946.   2998.
   2976.   3331.   3097.   3217.   3104.   2802.   2832.   2893.   2968.   2885.
   2870.   3323.   3293.   3346.   3421.   3429.   3308.   3331.   3217.   3414.
   3301.   3580.   3497.   3104.   3059.   3293.   2734.   2674.   2583.   2349.
   2538.   2304.   2190.   2281.   2273.   2054.   1866.   1669.   1805.   1782.
   1813.   1699.   1850.   2039.   1979.   1775.   1888.   1707.   1805.   1820.
   1722.   1548.   1654.   1541.   1714.   1480.   1299.   1563.   1480.   1231.
   1420.   1171.   1057.   1224.   1035.   1156.   1125.   1329.   1269.   1095.
   1103.   1072.   1095.   1231.   1239.   1246.   1329.   1292.   1284.   1239.
   1518.   1533.   1526.   1526.   1881.   1888.   2069.   2387.   2515.   2938.
   3293.   3504.   3414.   3761.   4214.   4260.   4275.   4071.   4109.   4237.
   4109.   3927.   4116.   4214.   4124.   4426.   3829.   4078.   3935.   3429.
   3557.   3323.   3255.   2908.   2961.   2862.   2417.   2538.   2432.   2349.
   2296.   2213.   2130.   2409.   2266.   2364.   2711.   2432.   2742.   2772.
   2968.   3119.   3293.   3618.   3542.   3776.   3588.   3791.   3995.   3678.
   3414.   3603.   3452.   3368.   3104.   3029.   3248.   3036.   3081.   2674.
   2674.   2870.   2296.   2319.   2236.   2145.   2115.   1737.   1933.   1707.
   1609.   1563.   1556.   1390.   1367.   1616.   1526.   1427.   1359.   1276.
   1359.   1480.   1390.   1337.   1344.   1269.   1390.   1284.   1412.   1503.
   1526.   1722.   1707.   2054.   2039.   1979.   2062.   2175.   2107.   2266.
   2387.   2137.   2243.   2349.   2341.   2651.   2387.   2349.   2485.   2319.
   2689.   2311.   3006.   2893.   2711.   2870.   2772.   3044.   3149.   3097.
   3285.   3134.   3293.   2998.   3187.   2961.   2900.   2870.   3051.   2885.
   3399.   2825.   2787.   2810.   2568.   2689.   2840.   2424.   2372.   2409.
   2507.   2349.   2288.   2311.   2266.   2160.   2107.   1903.   1805.   2107.
   2145.   2009.   2017.   1881.   2054.   2137.   2372.   2258.   2092.   2356.
   2258.   2258.   2643.   2651.   2915.   3089.   3081.   3331.   3776.   3859.
   4154.   4849.   4751.   5242.   5513.   5423.   5778.   5377.   5566.   5204.
   5649.   5597.   5529.   5551.   5075.   5347.   4879.   4932.   4902.   4788.
   4683.   4652.   4592.   4600.   4328.   4290.   4365.   3942.   3882.   3723.
   3489.   3504.   3474.   3293.   3172.   3051.   3157.   3021.   3081.   2651.
   2628.   2606.   2266.   2477.   2394.   2764.   2455.   2296.   2402.   2311.
   2145.   1994.   2387.   2228.   2092.   1994.   1699.   1730.   2047.   1926.
   2017.   2085.   1820.   1956.   2062.   2009.   2001.   1911.   1949.   1714.
   1631.   1843.   2024.   1813.   1911.   1722.   1730.   1654.   1805.   1609.
   1828.   1722.   2039.   1601.   1654.   1737.   1873.   2122.   1805.   1798.
   2220.   2266.   2153.   2349.   2062.   2115.   2183.   2243.   1979.   1858.
   2085.   2160.   2160.   1964.   1805.   2039.   1971.   2009.   1994.   2024.
   1896.   1835.   1964.   2213.   2258.   2213.   2266.   2273.   2643.   2538.
   2485.   2515.   2417.   2704.   2878.   2515.   2794.   2704.   2825.   2749.
   2598.   2711.   2689.   2734.   2198.   2711.   2455.   2394.   2591.   2659.
   2689.   2643.   2636.   2447.   2168.   2734.   2137.   2349.   2281.   2409.
   2213.   2470.   2326.   2492.   2311.   2628.   2643.   2953.   2394.   2613.
   2711.   2538.   2681.   2636.   2538.   2862.   2628.   2825.   2772.   2674.
   2681.   2681.   2455.   2304.   2689.   2175.   2168.   2160.   1903.   1737.
   2054.   1873.   1813.   1707.   1601.   1375.   1473.   1579.   1390.   1299.
   1420.   1669.   1359.   1579.   1488.   1329.   1201.   1322.   1488.   1344.
   1571.   1473.   1405.   1375.   1314.   1541.   1427.   1473.   1314.   1443.
   1390.   1594.   1579.   1420.   1352.   1518.   1616.   1722.   1669.   1556.
   1601.   1548.   1692.   1548.   1722.   1767.   1745.   1692.   1699.   1752.
   1850.   1571.   1767.   1798.   1752.   1790.   1594.   1654.   1579.   1503.
   1541.   1684.   1571.   1541.   1760.   1843.   1616.   1458.   1556.   1714.
   1586.   1677.   1662.   1533.   1813.   1601.   1979.   1971.   2024.   2205.
   2251.   2198.   2281.   2198.   2168.   1805.   1979.   2183.   2107.   2107.
   2190.   2379.   2409.   2168.   2205.   2281.   2130.   2243.   2077.   2160.
   2054.   2213.   2213.   2130.   1979.   1964.   1858.   1994.   1828.   1579.
   1631.   1677.   1563.   1662.   1458.   1367.   1307.   1276.   1480.   1178.
   1503.   1714.   1541.   1382.   1337.   1548.   1669.   1458.   1412.   1518.
   1405.   1616.   1563.   1382.   1458.   1276.   1322.   1798.   1465.   1662.
   1707.   1480.   1669.   1820.   1714.   1760.   1918.   1949.   1911.   2062.
   2122.   2326.   2251.   2591.   2553.   2711.   2356.   2341.   2591.   2606.
   2575.   2643.   2613.   2485.   2696.   2409.   2885.   2689.   2568.   2409.
   2470.   2545.   2364.   2137.   2190.   2047.   2236.   2032.   2001.   2115.



;
_cod_data_source_file            BaZnGaF7.cif
_cod_data_source_block           BaZnGaF7
_cod_original_sg_symbol_H-M      'P 21/c'
_cod_database_code               3500051
_pd_proc_ls_prof_cr_factor       10.5258
_pd_proc_ls_prof_cwr_factor      13.4864
_pd_proc_ls_prof_cwr_expected    2.0285
_pd_proc_ls_prof_chi2            44.2028
_pd_proc_ls_prof_echi2           44.6608
loop_
_publ_manuscript_incl_extra_item
_publ_manuscript_incl_extra_info
_publ_manuscript_incl_extra_defn
'_pd_proc_ls_prof_cR_factor' 'Prof. R-factor CORRECTED for background' no
'_pd_proc_ls_prof_cwR_factor' 'wProf.R-factor CORRECTED for background' no
'_pd_proc_ls_prof_cwR_expected' 'wProf.Expected CORRECTED for background' no
'_pd_proc_ls_prof_chi2' 'Chi-square for all considered points' no
'_pd_proc_ls_prof_echi2' 'Chi-2 for points with Bragg contribution' no
loop_
_symmetry_equiv_pos_site_id
_symmetry_equiv_pos_as_xyz
1 x,y,z
2 -x,1/2+y,1/2-z
3 -x,-y,-z
4 x,1/2-y,1/2+z
loop_
_atom_site_label
_atom_site_type_symbol
_atom_site_thermal_displace_type
_atom_site_fract_x
_atom_site_fract_y
_atom_site_fract_z
_atom_site_occupancy
_atom_site_U_iso_or_equiv
_atom_site_calc_flag
_atom_site_refinement_flags
_atom_site_disorder_assembly
_atom_site_disorder_group
Ga Ga Uiso 0.6871(7) 0.1209(4) 0.7637(4) 1.000 0.0145(13) . . . .
Zn Zn Uiso 0.8151(7) 0.0630(4) 0.3864(4) 1.000 0.0142(14) . . . .
F1 F Uiso 0.417(3) 0.2782(13) 0.2775(15) 1.000 0.0163(18) . . . .
F2 F Uiso 0.507(2) 0.0289(15) 0.2629(14) 1.000 0.0163(18) . . . .
F3 F Uiso 0.136(2) 0.4060(12) 0.0104(15) 1.000 0.0163(18) . . . .
F4 F Uiso 0.983(2) 0.4782(13) 0.2714(16) 1.000 0.0163(18) . . . .
F5 F Uiso 0.114(3) 0.7349(13) 0.2182(16) 1.000 0.0163(18) . . . .
F6 F Uiso 0.328(2) 0.6453(15) 0.9443(15) 1.000 0.0163(18) . . . .
F7 F Uiso 0.720(3) 0.4060(12) 0.4611(14) 1.000 0.0163(18) . . . .
Ba Ba Uiso 0.2233(4) 0.16867(19) 0.0409(2) 1.000 0.0186(7) . . . .
loop_
_atom_type_symbol
_atom_type_scat_Cromer_Mann_a1
_atom_type_scat_Cromer_Mann_b1
_atom_type_scat_Cromer_Mann_a2
_atom_type_scat_Cromer_Mann_b2
_atom_type_scat_Cromer_Mann_a3
_atom_type_scat_Cromer_Mann_b3
_atom_type_scat_Cromer_Mann_a4
_atom_type_scat_Cromer_Mann_b4
_atom_type_scat_Cromer_Mann_c
_atom_type_scat_dispersion_real
_atom_type_scat_dispersion_imag
_atom_type_scat_source
Ba+2 20.18070 3.21367 19.11360 0.28331 10.90540 20.05580 0.77634 51.74600
3.02902 -1.33400 8.46000
International_Tables_for_Crystallography_Vol.C(1991)_Tables_6.1.1.4_and_6.1.1.5
Zn+2 11.97190 2.99460 7.38620 0.20310 6.46680 7.08260 1.39400 18.09950 0.78070
-1.61200 0.67800
International_Tables_for_Crystallography_Vol.C(1991)_Tables_6.1.1.4_and_6.1.1.5
Ga+3 12.69200 2.81262 6.69883 0.22789 6.06692 6.36441 1.00660 14.41220 1.53545
-1.35400 0.77700
International_Tables_for_Crystallography_Vol.C(1991)_Tables_6.1.1.4_and_6.1.1.5
F-1 3.63220 5.27756 3.51057 14.73530 1.26064 0.44226 0.94071 47.34370 0.65340
0.06900 0.05300
International_Tables_for_Crystallography_Vol.C(1991)_Tables_6.1.1.4_and_6.1.1.5
loop_
_geom_angle_atom_site_label_1
_geom_angle_atom_site_label_2
_geom_angle_atom_site_label_3
_geom_angle
_geom_angle_site_symmetry_1
_geom_angle_site_symmetry_2
_geom_angle_site_symmetry_3
_geom_angle_publ_flag
F2 Ga F6 91.0(6) 3_656 . 2_646 yes
F5 Ga F6 86.9(6) 3_666 . 2_646 yes
F1 Ga F6 91.2(6) 4_555 . 2_646 yes
F4 Ga F6 94.4(6) 4_555 . 2_646 yes
F6 Ga F7 176.6(7) 2_646 . 4_555 yes
F2 Ga F5 177.2(6) 3_656 . 3_666 yes
F1 Ga F2 94.4(6) 4_555 . 3_656 yes
F2 Ga F4 89.0(6) 3_656 . 4_555 yes
F2 Ga F7 89.7(6) 3_656 . 4_555 yes
F1 Ga F5 87.6(7) 4_555 . 3_666 yes
F4 Ga F5 89.3(6) 4_555 . 3_666 yes
F5 Ga F7 92.3(6) 3_666 . 4_555 yes
F1 Ga F4 173.5(7) 4_555 . 4_555 yes
F1 Ga F7 92.2(7) 4_555 . 4_555 yes
F4 Ga F7 82.2(7) 4_555 . 4_555 yes
F2 Zn F3 100.6(6) . . 2_645 yes
F2 Zn F5 95.0(6) . . 2_645 yes
F2 Zn F6 98.9(5) . . 2_646 yes
F2 Zn F4 89.9(5) . . 2_745 yes
F2 Zn F3 178.4(6) . . 4_655 yes
F3 Zn F5 161.9(6) 2_645 . 2_645 yes
F3 Zn F6 93.7(6) 2_645 . 2_646 yes
F3 Zn F4 83.7(6) 2_645 . 2_745 yes
F3 Zn F3 78.6(5) 2_645 . 4_655 yes
F5 Zn F6 93.0(6) 2_645 . 2_646 yes
F4 Zn F5 87.2(6) 2_745 . 2_645 yes
F3 Zn F5 85.6(6) 4_655 . 2_645 yes
F4 Zn F6 171.2(5) 2_745 . 2_646 yes
F3 Zn F6 82.6(5) 4_655 . 2_646 yes
F3 Zn F4 88.7(5) 4_655 . 2_745 yes
Ga F2 Zn 130.9(8) 3_656 . . yes
Zn F3 Zn 101.4(6) 2_655 . 4_454 yes
Ga F4 Zn 134.8(8) 4_554 . 2_755 yes
Ga F5 Zn 129.1(8) 3_666 . 2_655 yes
Ga F6 Zn 135.9(8) 2_656 . 2_656 yes
loop_
_geom_bond_atom_site_label_1
_geom_bond_atom_site_label_2
_geom_bond_distance
_geom_bond_site_symmetry_1
_geom_bond_site_symmetry_2
_geom_bond_publ_flag
Ga F6 1.894(14) . 2_646 yes
Ga F2 1.928(15) . 3_656 yes
Ga F5 1.888(15) . 3_666 yes
Ga F1 1.833(16) . 4_555 yes
Ga F4 1.919(13) . 4_555 yes
Ga F7 1.802(13) . 4_555 yes
Zn F2 1.957(12) . . yes
Zn F3 1.938(14) . 2_645 yes
Zn F5 2.129(15) . 2_645 yes
Zn F6 1.984(14) . 2_646 yes
Zn F4 2.082(14) . 2_745 yes
Zn F3 2.009(12) . 4_655 yes
loop_
_geom_torsion_atom_site_label_1
_geom_torsion_atom_site_label_2
_geom_torsion_atom_site_label_3
_geom_torsion_atom_site_label_4
_geom_torsion
_geom_torsion_site_symmetry_1
_geom_torsion_site_symmetry_2
_geom_torsion_site_symmetry_3
_geom_torsion_site_symmetry_4
_geom_torsion_publ_flag
F2 Ga F6 Zn -70.0(10) 3_656 . 2_646 . no
F5 Ga F6 Zn 108.1(11) 3_666 . 2_646 . no
F1 Ga F6 Zn -164.5(11) 4_555 . 2_646 . no
F4 Ga F6 Zn 19.0(11) 4_555 . 2_646 . no
F3 Zn F2 Ga -4.1(10) 2_645 . . 3_656 no
F5 Zn F2 Ga 166.6(9) 2_645 . . 3_656 no
F6 Zn F2 Ga -99.6(9) 2_646 . . 3_656 no
F4 Zn F2 Ga 79.4(9) 2_745 . . 3_656 no
F2 Zn F5 Ga 58.9(10) . . 2_645 4_554 no
F2 Zn F6 Ga 124.6(10) . . 2_646 . no
F3 Zn F6 Ga 23.3(11) 2_645 . 2_646 . no
F5 Zn F6 Ga -139.9(11) 2_645 . 2_646 . no
F3 Zn F6 Ga -54.7(10) 4_655 . 2_646 . no
