#------------------------------------------------------------------------------
#$Date: 2016-02-13 21:28:24 +0200 (Sat, 13 Feb 2016) $
#$Revision: 176429 $
#$URL: svn://www.crystallography.net/cod/cif/4/12/46/4124689.cif $
#------------------------------------------------------------------------------
#
# This file is available in the Crystallography Open Database (COD),
# http://www.crystallography.net/
#
# All data on this site have been placed in the public domain by the
# contributors.
#
data_4124689
loop_
_publ_author_name
'Templeton, D.H.'
'Zalkin, A.'
'Williamson, S.M.'
'Forrester, J.D.'
_publ_section_title
;
 Crystal and molecular structure of xenon tetrafluoride
;
_journal_name_full               'Journal of the American Chemical Society'
_journal_page_first              242
_journal_page_last               242
_journal_volume                  85
_journal_year                    1963
_chemical_formula_sum            'F4 Xe'
_chemical_name_systematic        'Xe F4'
_space_group_IT_number           14
_symmetry_space_group_name_Hall  '-P 2yn'
_symmetry_space_group_name_H-M   'P 1 21/n 1'
_cell_angle_alpha                90
_cell_angle_beta                 99.6
_cell_angle_gamma                90
_cell_formula_units_Z            2
_cell_length_a                   5.05
_cell_length_b                   5.922
_cell_length_c                   5.771
_cell_volume                     170.171
_citation_journal_id_ASTM        JACSAT
_cod_data_source_file            Templeton_JACSAT_1963_1462.cif
_cod_data_source_block           F4Xe1
_cod_original_cell_volume        170.1712
_cod_original_sg_symbol_Hall     '-P 2ybc (x-z,y,z)'
_cod_original_formula_sum        'F4 Xe1'
_cod_database_code               4124689
loop_
_symmetry_equiv_pos_as_xyz
x,y,z
-x+1/2,y+1/2,-z+1/2
-x,-y,-z
x-1/2,-y-1/2,z-1/2
loop_
_atom_site_label
_atom_site_type_symbol
_atom_site_fract_x
_atom_site_fract_y
_atom_site_fract_z
_atom_site_occupancy
_atom_site_U_iso_or_equiv
Xe1 Xe+4 0 0 0 1 0.0
F1 F-1 0.261 0.147 0.847 1 0.0
F2 F-1 0.228 0.033 0.295 1 0.0
