#------------------------------------------------------------------------------
#$Date: 2016-02-13 21:28:24 +0200 (Sat, 13 Feb 2016) $
#$Revision: 176429 $
#$URL: svn://www.crystallography.net/cod/cif/4/34/45/4344528.cif $
#------------------------------------------------------------------------------
#
# This file is available in the Crystallography Open Database (COD),
# http://www.crystallography.net/
#
# All data on this site have been placed in the public domain by the
# contributors.
#
data_4344528
loop_
_publ_author_name
'Williamson, R.F.'
'Boo, W.O.J.'
_publ_section_title
;
 Lower valence fluorides of vanadium. 1. Synthesis and characterization of
 Na V F3, K V F3 and Rb V F3
;
_journal_name_full               'Inorganic Chemistry'
_journal_page_first              646
_journal_page_last               648
_journal_volume                  16
_journal_year                    1977
_chemical_formula_sum            'F3 Rb V'
_chemical_name_systematic        'Rb V F3'
_space_group_IT_number           221
_symmetry_space_group_name_Hall  '-P 4 2 3'
_symmetry_space_group_name_H-M   'P m -3 m'
_cell_angle_alpha                90
_cell_angle_beta                 90
_cell_angle_gamma                90
_cell_formula_units_Z            1
_cell_length_a                   4.182
_cell_length_b                   4.182
_cell_length_c                   4.182
_cell_volume                     73.140
_citation_journal_id_ASTM        INOCAJ
_cod_data_source_file            Williamson_INOCAJ_1977_432.cif
_cod_data_source_block           F3Rb1V1
_cod_original_cell_volume        73.13953
_cod_original_formula_sum        'F3 Rb1 V1'
_cod_database_code               4344528
loop_
_symmetry_equiv_pos_as_xyz
x,y,z
-y,x,z
-x,-y,z
y,-x,z
x,-y,-z
y,x,-z
-x,y,-z
-y,-x,-z
z,x,y
-x,z,y
-z,-x,y
x,-z,y
z,-x,-y
x,z,-y
-z,x,-y
-x,-z,-y
y,z,x
y,-z,-x
z,y,-x
-y,z,-x
-z,-y,-x
-y,-z,x
z,-y,x
-z,y,x
-x,-y,-z
y,-x,-z
x,y,-z
-y,x,-z
-x,y,z
-y,-x,z
x,-y,z
y,x,z
-z,-x,-y
x,-z,-y
z,x,-y
-x,z,-y
-z,x,y
-x,-z,y
z,-x,y
x,z,y
-y,-z,-x
-y,z,x
-z,-y,x
y,-z,x
z,y,x
y,z,-x
-z,y,-x
z,-y,-x
loop_
_atom_site_label
_atom_site_type_symbol
_atom_site_fract_x
_atom_site_fract_y
_atom_site_fract_z
_atom_site_occupancy
_atom_site_U_iso_or_equiv
Rb1 Rb+1 0 0 0 1 0.0
F1 F-1 0.5 0.5 0 1 0.0
V1 V+2 0.5 0.5 0.5 1 0.0
