#------------------------------------------------------------------------------
#$Date: 2016-03-02 09:51:31 +0200 (Wed, 02 Mar 2016) $
#$Revision: 177123 $
#$URL: svn://www.crystallography.net/cod/cif/5/91/03/5910337.cif $
#------------------------------------------------------------------------------
#
# This file is available in the Crystallography Open Database (COD),
# http://www.crystallography.net/
#
# All data on this site have been placed in the public domain by the
# contributors.
#
data_5910337
loop_
_publ_author_name
'Wyckoff, R. W. G.'
_publ_section_title
;
Pages 91 & 94 from the Structure of Crystals, vol. 3 by Wyckoff R W G. 
published by Interscience Publishers, Inc. in 1951 
;
_journal_name_full               'The Structure of Crystals'
_journal_page_first              91
_journal_page_last               94
_journal_volume                  3
_journal_year                    1951
_chemical_formula_structural     Cs2BeF4
_chemical_formula_sum            'Be Cs2 F4'
_space_group_IT_number           62
_symmetry_cell_setting           orthorhombic
_symmetry_Int_Tables_number      62
_symmetry_space_group_name_Hall  '-P 2ac 2n'
_symmetry_space_group_name_H-M   'P n m a'
_audit_creation_date             2006-08-07
_audit_creation_method
;
Pages 91 & 94 from the Structure of Crystals, vol. 3 by Wyckoff R W G. 
published by Interscience Publishers, Inc. in 1951 
;
_audit_update_record
'created by Girish Upreti, Portland State University'
_cell_angle_alpha                90
_cell_angle_beta                 90
_cell_angle_gamma                90
_cell_length_a                   10.0
_cell_length_b                   5.8
_cell_length_c                   4.5
_cell_volume                     261.000
_cod_original_formula_sum        'Cs2 Be F4'
_cod_database_code               5910337
loop_
_symmetry_equiv_pos_as_xyz
x,y,z
x+1/2,-y+1/2,-z+1/2
-x,y+1/2,-z
-x+1/2,-y,z+1/2
-x,-y,-z
-x+1/2,y+1/2,z+1/2
x,-y+1/2,z
x+1/2,y,-z+1/2
loop_
_atom_site_fract_x
_atom_site_fract_y
_atom_site_fract_z
_atom_site_label
0.00000 0.00000 0.00000 Cs1
0.00000 0.50000 0.00000 Cs2
0.50000 0.00000 0.50000 Cs3
0.50000 0.50000 0.50000 Cs4
0.27319 0.25000 -0.00595 Cs5
0.77319 0.25000 0.50595 Cs6
-0.27319 -0.25000 0.00595 Cs7
-0.77319 -0.25000 -0.50595 Cs8
0.09294 0.25000 0.43347 Be1
0.59294 0.25000 0.06653 Be2
-0.09294 -0.25000 -0.43347 Be3
-0.59294 -0.25000 -0.06653 Be4
0.09051 0.25000 0.79016 F1
0.59000 0.25000 -0.29016 F2
-0.09051 -0.25000 -0.79016 F3
-0.59000 -0.25000 0.29016 F4
0.43343 0.25000 0.24097 F5
0.93343 0.25000 0.25903 F6
-0.43343 -0.25000 -0.24097 F7
-0.93343 -0.25000 -0.25903 F8
0.16318 0.01718 0.25850 F9
0.66318 0.48282 0.24150 F10
0.16318 0.48282 0.25850 F11
0.66318 0.01718 0.24150 F12
-0.16318 -0.01718 -0.25850 F13
-0.66318 -0.48282 -0.24150 F14
-0.16318 -0.48282 -0.25850 F15
-0.66318 -0.01718 -0.24150 F16
