#------------------------------------------------------------------------------
#$Date: 2016-09-10 02:45:08 +0300 (Sat, 10 Sep 2016) $
#$Revision: 186452 $
#$URL: file:///home/coder/svn-repositories/cod/cif/7/05/55/7055592.cif $
#------------------------------------------------------------------------------
#
# This file is available in the Crystallography Open Database (COD),
# http://www.crystallography.net/
#
# All data on this site have been placed in the public domain by the
# contributors.
#
data_7055592
loop_
_publ_author_name
'Mazej, Zoran'
'Goreshnik, Evgeny A.'
_publ_section_title
;
 Largest perfluorometallate [Ti10F45]5&#x2212;oligomer and polymeric
 ([Ti3F13]&#x2212;)\\infty and ([TiF5]&#x2212;)\\infty anions prepared as
 [XeF5]+salts
;
_journal_issue                   9
_journal_name_full               'New J. Chem.'
_journal_page_first              7320
_journal_paper_doi               10.1039/C6NJ00955G
_journal_volume                  40
_journal_year                    2016
_chemical_absolute_configuration unk
_chemical_formula_moiety         'F45 Ti10, 5(F5 Xe)'
_chemical_formula_sum            'F70 Ti10 Xe5'
_chemical_formula_weight         2465.04
_space_group_crystal_system      orthorhombic
_space_group_IT_number           36
_space_group_name_Hall           'C 2c -2'
_space_group_name_H-M_alt        'C m c 21'
_symmetry_space_group_name_Hall  'C 2c -2'
_symmetry_space_group_name_H-M   'C m c 21'
_audit_creation_date             2015-07-17
_audit_creation_method
;
  Olex2 1.2-ac2
  (compiled 2012.03.27 svn.r2268, GUI svn.r4156)
;
_cell_angle_alpha                90
_cell_angle_beta                 90
_cell_angle_gamma                90
_cell_formula_units_Z            4
_cell_length_a                   18.8980(4)
_cell_length_b                   16.7388(4)
_cell_length_c                   17.3542(4)
_cell_measurement_reflns_used    6155
_cell_measurement_temperature    296
_cell_measurement_theta_max      28.4910
_cell_measurement_theta_min      4.2720
_cell_volume                     5489.7(2)
_computing_cell_refinement
;
CrysAlisPro, Agilent Technologies,
Version 1.171.37.35 (release 13-08-2014 CrysAlis171 .NET)
(compiled Aug 13 2014,18:06:01)
;
_computing_data_collection
;
CrysAlisPro, Agilent Technologies,
Version 1.171.37.35 (release 13-08-2014 CrysAlis171 .NET)
(compiled Aug 13 2014,18:06:01)
;
_computing_data_reduction
;
CrysAlisPro, Agilent Technologies,
Version 1.171.37.35 (release 13-08-2014 CrysAlis171 .NET)
(compiled Aug 13 2014,18:06:01)
;
_computing_molecular_graphics
;
Crystal Impact GbR, Bonn, Germany (2004-2005) DIAMOND v3.1.
;
_computing_publication_material
;
O. V. Dolomanov, L. J. Bourhis, R. J. Gildea, J. A. K. Howard and H. Puschmann,
OLEX2: a complete structure solution, refinement and analysis program.
J. Appl. Cryst. (2009). 42, 339-341.
;
_computing_structure_refinement
;
 SHELXL-2014/7 (Sheldrick, 2014)
;
_computing_structure_solution
;
SHELXS, G.M. Sheldrick, Acta Cryst.
(2008). A64, 112-122
;
_diffrn_ambient_environment      air
_diffrn_ambient_temperature      296
_diffrn_detector                 'CCD plate'
_diffrn_detector_area_resol_mean 10.6426
_diffrn_detector_type            Atlas
_diffrn_measured_fraction_theta_full 0.9732
_diffrn_measured_fraction_theta_max 0.7236
_diffrn_measurement_details
;
  1 omega   -6.00   70.00   1.0000   14.9750
omega____ theta____ kappa____ phi______ frames
    -        9.0022   57.0000   90.0000 76

  2 omega  -47.00   16.00   1.0000   14.9750
omega____ theta____ kappa____ phi______ frames
    -        9.0022  -57.0000  -90.0000 63
;
_diffrn_measurement_device       'four-circle diffractometer'
_diffrn_measurement_device_type  'New Gemini, Dual, Cu at zero, Atlas'
_diffrn_measurement_method       '\w scans'
_diffrn_orient_matrix_UB_11      0.0346905000
_diffrn_orient_matrix_UB_12      0.0123536000
_diffrn_orient_matrix_UB_13      -0.0100552000
_diffrn_orient_matrix_UB_21      0.0142427000
_diffrn_orient_matrix_UB_22      -0.0270451000
_diffrn_orient_matrix_UB_23      0.0273732000
_diffrn_orient_matrix_UB_31      0.0014612000
_diffrn_orient_matrix_UB_32      -0.0301714000
_diffrn_orient_matrix_UB_33      -0.0286644000
_diffrn_radiation_monochromator  graphite
_diffrn_radiation_probe          x-ray
_diffrn_radiation_type           'Mo K\a'
_diffrn_radiation_wavelength     0.71073
_diffrn_reflns_av_R_equivalents  0.0198
_diffrn_reflns_av_unetI/netI     0.0295
_diffrn_reflns_limit_h_max       17
_diffrn_reflns_limit_h_min       -25
_diffrn_reflns_limit_k_max       22
_diffrn_reflns_limit_k_min       -17
_diffrn_reflns_limit_l_max       20
_diffrn_reflns_limit_l_min       -22
_diffrn_reflns_number            9865
_diffrn_reflns_theta_full        25.000000
_diffrn_reflns_theta_max         28.93
_diffrn_reflns_theta_min         3.46
_diffrn_source                   'Enhance (Mo) X-ray Source'
_exptl_absorpt_coefficient_mu    4.651
_exptl_absorpt_correction_T_max  0.342
_exptl_absorpt_correction_T_min  0.236
_exptl_absorpt_correction_type   analytical
_exptl_absorpt_process_details
;
CrysAlisPro, Agilent Technologies,
Version 1.171.37.35 (release 13-08-2014 CrysAlis171 .NET)
(compiled Aug 13 2014,18:06:01)
Analytical numeric absorption correction using a multifaceted crystal
            model based on expressions derived by R.C. Clark & J.S. Reid.
(Clark, R. C. & Reid, J. S. (1995). Acta Cryst. A51, 887-897)
Empirical absorption correction using spherical harmonics,
 implemented in SCALE3 ABSPACK scaling algorithm.
;
_exptl_crystal_colour            colourless
_exptl_crystal_colour_primary    colourless
_exptl_crystal_density_diffrn    2.9595
_exptl_crystal_description       block
_exptl_crystal_F_000             4479.8
_exptl_crystal_size_max          0.5668
_exptl_crystal_size_mid          0.3907
_exptl_crystal_size_min          0.3511
_refine_diff_density_max         2.306
_refine_diff_density_min         -1.459
_refine_diff_density_rms         0.136
_refine_ls_abs_structure_details
;
 Flack x determined using 1995 quotients [(I+)-(I-)]/[(I+)+(I-)]
 (Parsons, Flack and Wagner, Acta Cryst. B69 (2013) 249-259).
;
_refine_ls_abs_structure_Flack   -0.039(9)
_refine_ls_d_res_high            0.734698
_refine_ls_d_res_low             5.895666
_refine_ls_extinction_coef       0.00029(3)
_refine_ls_extinction_expression Fc^*^=kFc[1+0.001xFc^2^\l^3^/sin(2\q)]^-1/4^
_refine_ls_extinction_method     'SHELXL-2014/7 (Sheldrick 2014'
_refine_ls_goodness_of_fit_ref   1.027
_refine_ls_hydrogen_treatment    undef
_refine_ls_matrix_type           full
_refine_ls_number_parameters     403
_refine_ls_number_reflns         5429
_refine_ls_number_restraints     10
_refine_ls_restrained_S_all      1.043
_refine_ls_R_factor_all          0.0380
_refine_ls_R_factor_gt           0.0350
_refine_ls_shift/su_max          0.001
_refine_ls_shift/su_mean         0.000
_refine_ls_structure_factor_coef Fsqd
_refine_ls_weighting_details
'w=1/[\s^2^(Fo^2^)+(0.0436P)^2^+31.6035P] where P=(Fo^2^+2Fc^2^)/3'
_refine_ls_weighting_scheme      calc
_refine_ls_wR_factor_gt          0.0833
_refine_ls_wR_factor_ref         0.0857
_reflns_Friedel_coverage         0.610
_reflns_limit_h_max              25
_reflns_limit_h_min              -25
_reflns_limit_k_max              22
_reflns_limit_k_min              -21
_reflns_limit_l_max              20
_reflns_limit_l_min              -22
_reflns_number_gt                5148
_reflns_number_total             5429
_reflns_threshold_expression     I>=2u(I)
_iucr_refine_instructions_details
;

    shelx.res created by SHELXL-2014/7

TITL (XeF5)5Ti10F45_capp2 in Cmc21 #36
CELL  0.71073  18.8980  16.7388  17.3542   90.000   90.000   90.000
ZERR     4.00   0.0004   0.0004   0.0004    0.000    0.000    0.000
LATT  -7
SYMM  - X, - Y, 1/2 + Z
SYMM  - X,   Y,   Z
SYMM    X, - Y, 1/2 + Z
SFAC  XE   TI   F
UNIT  20   40   272
MERG   2
DFIX  1.85 XE2 F21
DFIX  1.85 XE2 F22
DFIX  1.85 XE2 F23
DFIX  1.85 XE2 F24
DFIX  1.85 XE2 F25
DFIX  1.85 XE2 F26
DFIX  1.85 XE2 F27
DFIX  1.85 XE2 F28
MORE -1
SUMP 4.0 0.01 1.0 2 1.0 3 1.0 4 1.0 5 1.0 6 1.0 7 1.0 8 1.0 9
EADP F21 F22 F23 F24 F25 F26 F27 F28
FMAP   2
PLAN   20
ACTA    50.00    NOHKL
BOND
BOND   $H
CONF
L.S.  12
WGHT    0.043600   31.603500
EXTI    0.000290
FVAR       0.99880   0.55070   0.63159   0.31476   0.64273   0.26456   0.63388
FVAR       0.39256   0.58298
XE1   1    0.696683    0.982915    0.965674    11.00000    0.04068    0.03595 =
         0.03470    0.00093   -0.00681   -0.01894
XE2   1    0.840562    0.734213    0.730232    11.00000    0.03197    0.05756 =
         0.06877    0.00376    0.01802    0.01242
XE3   1    0.500000    0.494109    0.522897    10.50000    0.05128    0.03593 =
         0.05441   -0.02493    0.00000    0.00000
TI1   2    0.600568    0.574130    0.743301    11.00000    0.05095    0.02294 =
         0.04387   -0.00415    0.00066    0.01079
TI2   2    0.500000    0.829810    0.974913    10.50000    0.01835    0.01884 =
         0.02600   -0.00119    0.00000    0.00000
TI3   2    0.600549    0.728225    0.585269    11.00000    0.07222    0.02834 =
         0.03597   -0.00613    0.02150    0.00018
TI4   2    0.660151    0.887236    0.729802    11.00000    0.02293    0.02750 =
         0.02900    0.00748    0.00283   -0.00256
TI5   2    0.500000    0.984380    0.818090    10.50000    0.02808    0.01639 =
         0.02896    0.00104    0.00000    0.00000
TI6   2    0.661298    0.733805    0.886390    11.00000    0.01924    0.02276 =
         0.02880    0.00579    0.00107    0.00457
F1A   3    0.602543    0.492441    0.806978    11.00000    0.10830    0.02874 =
         0.08124    0.00986   -0.00586    0.01888
F1B   3    0.574275    0.520601    0.657938    11.00000    0.10460    0.03579 =
         0.05156   -0.01886    0.00323    0.00920
F1C   3    0.500000    0.590055    0.768476    10.50000    0.05257    0.03370 =
         0.04770   -0.01087    0.00000    0.00000
F1D   3    0.587345    0.674500    0.685454    11.00000    0.06418    0.01966 =
         0.03836   -0.00107    0.00258    0.00378
F1E   3    0.615463    0.647473    0.832372    11.00000    0.04113    0.02259 =
         0.03898   -0.00001    0.00425   -0.00268
F1F   3    0.690721    0.578807    0.724108    11.00000    0.05393    0.12184 =
         0.08257   -0.01512    0.01426    0.04112
F2A   3    0.500000    0.772734    1.059395    10.50000    0.06335    0.04504 =
         0.02486    0.01232    0.00000    0.00000
F2B   3    0.567971    0.755604    0.927443    11.00000    0.01924    0.02070 =
         0.04219    0.00478    0.00300    0.00417
F2C   3    0.571219    0.894077    1.000324    11.00000    0.03953    0.03143 =
         0.05623   -0.00640   -0.01533   -0.00695
F2D   3    0.500000    0.879986    0.871899    10.50000    0.03568    0.01733 =
         0.03129    0.00438    0.00000    0.00000
F3A   3    0.690605    0.707186    0.592796    11.00000    0.07061    0.06742 =
         0.18960    0.01192    0.06771    0.02335
F3B   3    0.500000    0.754265    0.599105    10.50000    0.07573    0.03221 =
         0.04317   -0.00449    0.00000    0.00000
F3C   3    0.605642    0.785334    0.502513    11.00000    0.19591    0.05837 =
         0.03838    0.00349    0.04548   -0.01968
F3D   3    0.574468    0.636071    0.539797    11.00000    0.13399    0.03719 =
         0.05343   -0.01869    0.01170    0.00157
F3E   3    0.615394    0.825799    0.650401    11.00000    0.04501    0.02978 =
         0.03704    0.00334    0.00439    0.00224
F4A   3    0.742132    0.832050    0.715112    11.00000    0.03280    0.07299 =
         0.06787    0.02008    0.01887    0.01667
F4B   3    0.691539    0.937077    0.815307    11.00000    0.04305    0.04969 =
         0.04428    0.00824   -0.02088   -0.01647
F4C   3    0.680503    0.965465    0.667312    11.00000    0.05922    0.04476 =
         0.04125    0.01575    0.00157   -0.01268
F4D   3    0.629993    0.799900    0.798757    11.00000    0.02705    0.02800 =
         0.03289    0.00924    0.00001    0.00070
F4E   3    0.567531    0.931345    0.749136    11.00000    0.02994    0.03087 =
         0.03321    0.00305   -0.00107    0.00317
F5A   3    0.500000    1.069018    0.760565    10.50000    0.06676    0.02418 =
         0.06505    0.01469    0.00000    0.00000
F5B   3    0.428254    1.012581    0.878519    11.00000    0.05380    0.04308 =
         0.04696   -0.00838    0.01431    0.01616
F6A   3    0.679882    0.672155    0.963838    11.00000    0.04637    0.04618 =
         0.04342    0.01604   -0.01003    0.01732
F6B   3    0.692285    0.824692    0.930466    11.00000    0.03766    0.04219 =
         0.04014   -0.00108   -0.01007   -0.00971
F6C   3    0.742666    0.716346    0.832545    11.00000    0.02738    0.05148 =
         0.05549    0.01161    0.01645    0.01148
F11   3    0.752978    1.045701    1.024039    11.00000    0.07212    0.06298 =
         0.04499   -0.00119   -0.01526   -0.04358
F12   3    0.706766    0.920163    1.051079    11.00000    0.05221    0.04065 =
         0.03946    0.00139   -0.01094   -0.00625
F13   3    0.783922    0.947610    0.933939    11.00000    0.03999    0.10191 =
         0.05502   -0.01399   -0.00040   -0.02413
F14   3    0.707173    1.068484    0.900737    11.00000    0.10465    0.04842 =
         0.05736    0.01852   -0.02745   -0.04843
F15   3    0.630406    1.040818    1.017155    11.00000    0.06641    0.03634 =
         0.05162   -0.01717   -0.00999    0.00175
F21   3    0.869807    0.797910    0.790697    21.00000    0.05716    0.12516 =
         0.11668    0.01553    0.01727    0.01250
F22   3    0.878349    0.836544    0.721543    31.00000    0.05716    0.12516 =
         0.11668    0.01553    0.01727    0.01250
F23   3    0.849498    0.797546    0.643373    41.00000    0.05716    0.12516 =
         0.11668    0.01553    0.01727    0.01250
F24   3    0.833464    0.737246    0.627208    51.00000    0.05716    0.12516 =
         0.11668    0.01553    0.01727    0.01250
F25   3    0.837262    0.644448    0.667656    61.00000    0.05716    0.12516 =
         0.11668    0.01553    0.01727    0.01250
F26   3    0.831840    0.626949    0.729694    71.00000    0.05716    0.12516 =
         0.11668    0.01553    0.01727    0.01250
F27   3    0.860169    0.651435    0.795884    81.00000    0.05716    0.12516 =
         0.11668    0.01553    0.01727    0.01250
F28   3    0.881426    0.717905    0.826803    91.00000    0.05716    0.12516 =
         0.11668    0.01553    0.01727    0.01250
F29   3    0.930568    0.712839    0.706624    11.00000    0.03311    0.11846 =
         0.11342    0.02181    0.03389    0.02793
F31   3    0.500000    0.553759    0.433490    10.50000    0.13461    0.05404 =
         0.05046   -0.02463    0.00000    0.00000
F32   3    0.500000    0.415413    0.450554    10.50000    0.08916    0.05987 =
         0.08733   -0.05530    0.00000    0.00000
F33   3    0.500000    0.406110    0.584272    10.50000    0.08643    0.02977 =
         0.08468   -0.01717    0.00000    0.00000
F34   3    0.594805    0.479088    0.510307    11.00000    0.05522    0.06147 =
         0.10044   -0.03925    0.01150    0.00302
HKLF    4

REM  (XeF5)5Ti10F45_capp2 in Cmc21 #36
REM R1 =  0.0350 for    5148 Fo > 4sig(Fo)  and  0.0380 for all    5429 data
REM    403 parameters refined using     10 restraints

END

WGHT      0.0441     31.1703

REM Highest difference peak  2.306,  deepest hole -1.459,  1-sigma level  0.136
Q1    1   0.8617  0.7654  0.7687  11.00000  0.05    2.31
Q2    1   0.8253  0.7622  0.6930  11.00000  0.05    1.04
Q3    1   0.8679  0.8364  0.7626  11.00000  0.05    1.00
Q4    1   0.6722  1.0171  0.9599  11.00000  0.05    0.92
Q5    1   0.8794  0.7596  0.8289  11.00000  0.05    0.79
Q6    1   0.8757  0.6816  0.8194  11.00000  0.05    0.71
Q7    1   0.8651  0.8378  0.6873  11.00000  0.05    0.70
Q8    1   0.8375  0.6264  0.7682  11.00000  0.05    0.70
Q9    1   0.5319  0.4949  0.5392  11.00000  0.05    0.64
Q10   1   0.5000  0.8135  0.6257  10.50000  0.05    0.56
Q11   1   0.8237  0.6749  0.6337  11.00000  0.05    0.55
Q12   1   0.8034  0.6328  0.6977  11.00000  0.05    0.54
Q13   1   0.8087  0.6832  0.6872  11.00000  0.05    0.51
Q14   1   0.8457  0.6251  0.6998  11.00000  0.05    0.51
Q15   1   0.7294  0.9835  0.9524  11.00000  0.05    0.50
Q16   1   0.8410  0.7697  0.6283  11.00000  0.05    0.50
Q17   1   0.4809  0.4727  0.5595  11.00000  0.05    0.47
Q18   1   1.0000  0.7024  0.7084  10.50000  0.05    0.47
Q19   1   0.6525  0.5834  0.7269  11.00000  0.05    0.46
Q20   1   0.8981  0.8279  0.7247  11.00000  0.05    0.45
;
_cod_data_source_file            c6nj00955g4.cif
_cod_data_source_block           (XeF5)5Ti10F45_capp2
_cod_depositor_comments
'Adding full bibliography for 7055592--7055594.cif.'
_cod_database_code               7055592
_chemical_oxdiff_formula         'Xe5 Ti10 F70'
_reflns_odcompleteness_completeness 97.32
_reflns_odcompleteness_iscentric 1
_reflns_odcompleteness_theta     26.32
loop_
_space_group_symop_id
_space_group_symop_operation_xyz
1 x,y,z
2 -x,-y,z+1/2
3 -x,y,z
4 x,-y,z+1/2
5 x+1/2,y+1/2,z
6 -x+1/2,-y+1/2,z+1/2
7 -x+1/2,y+1/2,z
8 x+1/2,-y+1/2,z+1/2
loop_
_atom_site_label
_atom_site_type_symbol
_atom_site_fract_x
_atom_site_fract_y
_atom_site_fract_z
_atom_site_U_iso_or_equiv
_atom_site_adp_type
_atom_site_occupancy
_atom_site_site_symmetry_order
_atom_site_calc_flag
_atom_site_refinement_flags_posn
_atom_site_refinement_flags_adp
_atom_site_refinement_flags_occupancy
Xe1 Xe 0.69668(3) 0.98291(3) 0.96567(4) 0.03711(17) Uani 1 1 d . . .
Xe2 Xe 0.84056(4) 0.73421(5) 0.73023(5) 0.0528(2) Uani 1 1 d D . .
Xe3 Xe 0.5000 0.49411(6) 0.52290(6) 0.0472(3) Uani 1 2 d S T P
Ti1 Ti 0.60057(11) 0.57413(10) 0.74330(11) 0.0393(4) Uani 1 1 d . . .
Ti2 Ti 0.5000 0.82981(11) 0.97491(13) 0.0211(4) Uani 1 2 d S T P
Ti3 Ti 0.60055(13) 0.72822(11) 0.58527(12) 0.0455(5) Uani 1 1 d . . .
Ti4 Ti 0.66015(8) 0.88724(9) 0.72980(10) 0.0265(3) Uani 1 1 d . . .
Ti5 Ti 0.5000 0.98438(12) 0.81809(14) 0.0245(4) Uani 1 2 d S T P
Ti6 Ti 0.66130(8) 0.73381(9) 0.88639(9) 0.0236(3) Uani 1 1 d . . .
F1A F 0.6025(5) 0.4924(4) 0.8070(5) 0.073(2) Uani 1 1 d . . .
F1B F 0.5743(5) 0.5206(4) 0.6579(4) 0.064(2) Uani 1 1 d . . .
F1C F 0.5000 0.5901(5) 0.7685(5) 0.045(2) Uani 1 2 d S T P
F1D F 0.5873(4) 0.6745(3) 0.6855(3) 0.0407(14) Uani 1 1 d . . .
F1E F 0.6155(3) 0.6475(3) 0.8324(3) 0.0342(12) Uani 1 1 d . . .
F1F F 0.6907(4) 0.5788(6) 0.7241(6) 0.086(3) Uani 1 1 d . . .
F2A F 0.5000 0.7727(5) 1.0594(5) 0.044(2) Uani 1 2 d S T P
F2B F 0.5680(2) 0.7556(3) 0.9274(3) 0.0274(10) Uani 1 1 d . . .
F2C F 0.5712(3) 0.8941(3) 1.0003(4) 0.0424(14) Uani 1 1 d . . .
F2D F 0.5000 0.8800(4) 0.8719(4) 0.0281(15) Uani 1 2 d S T P
F3A F 0.6906(5) 0.7072(5) 0.5928(8) 0.109(4) Uani 1 1 d . . .
F3B F 0.5000 0.7543(5) 0.5991(5) 0.050(2) Uani 1 2 d S T P
F3C F 0.6056(7) 0.7853(5) 0.5025(4) 0.098(4) Uani 1 1 d . . .
F3D F 0.5745(5) 0.6361(4) 0.5398(4) 0.075(2) Uani 1 1 d . . .
F3E F 0.6154(3) 0.8258(3) 0.6504(3) 0.0373(12) Uani 1 1 d . . .
F4A F 0.7421(3) 0.8321(4) 0.7151(4) 0.0579(19) Uani 1 1 d . . .
F4B F 0.6915(3) 0.9371(4) 0.8153(4) 0.0457(15) Uani 1 1 d . . .
F4C F 0.6805(4) 0.9655(4) 0.6673(4) 0.0484(16) Uani 1 1 d . . .
F4D F 0.6300(3) 0.7999(3) 0.7988(3) 0.0293(11) Uani 1 1 d . . .
F4E F 0.5675(3) 0.9313(3) 0.7491(3) 0.0313(12) Uani 1 1 d . . .
F5A F 0.5000 1.0690(5) 0.7606(6) 0.052(2) Uani 1 2 d S T P
F5B F 0.4283(4) 1.0126(4) 0.8785(4) 0.0479(15) Uani 1 1 d . . .
F6A F 0.6799(3) 0.6722(3) 0.9638(4) 0.0453(14) Uani 1 1 d . . .
F6B F 0.6923(3) 0.8247(3) 0.9305(4) 0.0400(13) Uani 1 1 d . . .
F6C F 0.7427(3) 0.7163(4) 0.8325(4) 0.0448(14) Uani 1 1 d . . .
F11 F 0.7530(4) 1.0457(4) 1.0240(4) 0.0600(19) Uani 1 1 d . . .
F12 F 0.7068(3) 0.9202(4) 1.0511(4) 0.0441(15) Uani 1 1 d . . .
F13 F 0.7839(4) 0.9476(5) 0.9339(4) 0.066(2) Uani 1 1 d . . .
F14 F 0.7072(5) 1.0685(4) 0.9007(4) 0.070(3) Uani 1 1 d . . .
F15 F 0.6304(4) 1.0408(3) 1.0172(4) 0.0515(16) Uani 1 1 d . . .
F21 F 0.8698(9) 0.7979(11) 0.7907(11) 0.100(2) Uani 0.551(19) 1 d D . P
F22 F 0.8783(7) 0.8365(9) 0.7215(11) 0.100(2) Uani 0.632(18) 1 d D . P
F23 F 0.8495(17) 0.798(2) 0.6434(19) 0.100(2) Uani 0.31(2) 1 d D . P
F24 F 0.8335(8) 0.7372(13) 0.6272(9) 0.100(2) Uani 0.64(2) 1 d D . P
F25 F 0.8373(19) 0.644(2) 0.668(2) 0.100(2) Uani 0.26(2) 1 d D . P
F26 F 0.8318(7) 0.6269(9) 0.7297(14) 0.100(2) Uani 0.634(19) 1 d D . P
F27 F 0.8602(13) 0.6514(17) 0.7959(17) 0.100(2) Uani 0.39(2) 1 d D . P
F28 F 0.8814(8) 0.7179(13) 0.8268(10) 0.100(2) Uani 0.58(2) 1 d D . P
F29 F 0.9306(4) 0.7128(6) 0.7066(6) 0.088(3) Uani 1 1 d . . .
F31 F 0.5000 0.5538(6) 0.4335(7) 0.080(4) Uani 1 2 d S T P
F32 F 0.5000 0.4154(7) 0.4506(7) 0.079(4) Uani 1 2 d S T P
F33 F 0.5000 0.4061(5) 0.5843(7) 0.067(3) Uani 1 2 d S T P
F34 F 0.5948(4) 0.4791(4) 0.5103(5) 0.072(2) Uani 1 1 d . . .
loop_
_atom_site_aniso_label
_atom_site_aniso_U_11
_atom_site_aniso_U_22
_atom_site_aniso_U_33
_atom_site_aniso_U_23
_atom_site_aniso_U_13
_atom_site_aniso_U_12
Xe1 0.0407(3) 0.0359(3) 0.0347(3) 0.0009(3) -0.0068(3) -0.0189(3)
Xe2 0.0320(3) 0.0576(4) 0.0688(5) 0.0038(4) 0.0180(3) 0.0124(3)
Xe3 0.0513(5) 0.0359(4) 0.0544(6) -0.0249(4) 0.000 0.000
Ti1 0.0509(10) 0.0229(8) 0.0439(11) -0.0041(7) 0.0007(9) 0.0108(8)
Ti2 0.0184(9) 0.0188(8) 0.0260(11) -0.0012(8) 0.000 0.000
Ti3 0.0722(14) 0.0283(8) 0.0360(10) -0.0061(7) 0.0215(10) 0.0002(9)
Ti4 0.0229(7) 0.0275(7) 0.0290(8) 0.0075(6) 0.0028(7) -0.0026(6)
Ti5 0.0281(10) 0.0164(9) 0.0290(12) 0.0010(8) 0.000 0.000
Ti6 0.0192(7) 0.0228(7) 0.0288(8) 0.0058(6) 0.0011(6) 0.0046(6)
F1A 0.108(7) 0.029(3) 0.081(6) 0.010(3) -0.006(5) 0.019(4)
F1B 0.105(6) 0.036(3) 0.052(4) -0.019(3) 0.003(4) 0.009(4)
F1C 0.053(5) 0.034(4) 0.048(5) -0.011(4) 0.000 0.000
F1D 0.064(4) 0.020(2) 0.038(3) -0.001(2) 0.003(3) 0.004(3)
F1E 0.041(3) 0.023(2) 0.039(3) 0.000(2) 0.004(2) -0.003(2)
F1F 0.054(4) 0.122(8) 0.083(6) -0.015(6) 0.014(5) 0.041(5)
F2A 0.063(6) 0.045(5) 0.025(4) 0.012(3) 0.000 0.000
F2B 0.019(2) 0.021(2) 0.042(3) 0.005(2) 0.003(2) 0.0042(19)
F2C 0.040(3) 0.031(3) 0.056(4) -0.006(2) -0.015(3) -0.007(2)
F2D 0.036(4) 0.017(3) 0.031(4) 0.004(3) 0.000 0.000
F3A 0.071(6) 0.067(5) 0.190(12) 0.012(7) 0.068(7) 0.023(5)
F3B 0.076(7) 0.032(4) 0.043(5) -0.004(4) 0.000 0.000
F3C 0.196(12) 0.058(4) 0.038(4) 0.003(3) 0.045(6) -0.020(6)
F3D 0.134(8) 0.037(3) 0.053(5) -0.019(3) 0.012(5) 0.002(4)
F3E 0.045(3) 0.030(3) 0.037(3) 0.003(2) 0.004(3) 0.002(2)
F4A 0.033(3) 0.073(5) 0.068(5) 0.020(4) 0.019(3) 0.017(3)
F4B 0.043(3) 0.050(3) 0.044(3) 0.008(3) -0.021(3) -0.016(3)
F4C 0.059(4) 0.045(3) 0.041(4) 0.016(3) 0.002(3) -0.013(3)
F4D 0.027(2) 0.028(2) 0.033(3) 0.009(2) 0.000(2) 0.001(2)
F4E 0.030(2) 0.031(3) 0.033(3) 0.003(2) -0.001(2) 0.003(2)
F5A 0.067(6) 0.024(4) 0.065(6) 0.015(4) 0.000 0.000
F5B 0.054(4) 0.043(3) 0.047(4) -0.008(3) 0.014(3) 0.016(3)
F6A 0.046(3) 0.046(3) 0.043(3) 0.016(3) -0.010(3) 0.017(3)
F6B 0.038(3) 0.042(3) 0.040(3) -0.001(2) -0.010(3) -0.010(3)
F6C 0.027(3) 0.051(3) 0.055(4) 0.012(3) 0.016(3) 0.011(3)
F11 0.072(5) 0.063(4) 0.045(4) -0.001(3) -0.015(4) -0.044(4)
F12 0.052(4) 0.041(3) 0.039(3) 0.001(2) -0.011(3) -0.006(3)
F13 0.040(4) 0.102(6) 0.055(4) -0.014(4) 0.000(3) -0.024(4)
F14 0.105(7) 0.048(4) 0.057(5) 0.019(3) -0.027(4) -0.048(4)
F15 0.066(4) 0.036(3) 0.052(4) -0.017(3) -0.010(3) 0.002(3)
F21 0.057(4) 0.125(6) 0.117(6) 0.016(5) 0.017(4) 0.013(4)
F22 0.057(4) 0.125(6) 0.117(6) 0.016(5) 0.017(4) 0.013(4)
F23 0.057(4) 0.125(6) 0.117(6) 0.016(5) 0.017(4) 0.013(4)
F24 0.057(4) 0.125(6) 0.117(6) 0.016(5) 0.017(4) 0.013(4)
F25 0.057(4) 0.125(6) 0.117(6) 0.016(5) 0.017(4) 0.013(4)
F26 0.057(4) 0.125(6) 0.117(6) 0.016(5) 0.017(4) 0.013(4)
F27 0.057(4) 0.125(6) 0.117(6) 0.016(5) 0.017(4) 0.013(4)
F28 0.057(4) 0.125(6) 0.117(6) 0.016(5) 0.017(4) 0.013(4)
F29 0.033(3) 0.118(7) 0.113(8) 0.022(6) 0.034(4) 0.028(4)
F31 0.135(12) 0.054(6) 0.050(6) -0.025(5) 0.000 0.000
F32 0.089(8) 0.060(6) 0.087(9) -0.055(6) 0.000 0.000
F33 0.086(8) 0.030(4) 0.085(8) -0.017(5) 0.000 0.000
F34 0.055(4) 0.061(4) 0.100(6) -0.039(4) 0.011(4) 0.003(4)
loop_
_atom_type_symbol
_atom_type_scat_dispersion_real
_atom_type_scat_dispersion_imag
_atom_type_scat_source
_atom_type_scat_dispersion_source
F 0.01794 0.01033 'International Tables Volume C Table 6.1.1.4 (pp. 500-502)'
'Henke, Gullikson and Davis, At. Data and Nucl. Data Tables, 1993, 54, 2'
Xe -0.30582 2.04728 'International Tables Volume C Table 6.1.1.4 (pp. 500-502)'
'Henke, Gullikson and Davis, At. Data and Nucl. Data Tables, 1993, 54, 2'
Ti 0.29130 0.45317 'International Tables Volume C Table 6.1.1.4 (pp. 500-502)'
'Henke, Gullikson and Davis, At. Data and Nucl. Data Tables, 1993, 54, 2'
loop_
_exptl_crystal_face_index_h
_exptl_crystal_face_index_k
_exptl_crystal_face_index_l
_exptl_crystal_face_perp_dist
_exptl_oxdiff_crystal_face_indexfrac_h
_exptl_oxdiff_crystal_face_indexfrac_k
_exptl_oxdiff_crystal_face_indexfrac_l
_exptl_oxdiff_crystal_face_x
_exptl_oxdiff_crystal_face_y
_exptl_oxdiff_crystal_face_z
-20 8 -13 0.1843 -19.9922 8.0072 -13.0089 -0.4638 -0.8574 0.1021
19 17 -1 0.1602 19.0012 16.9906 -0.9949 0.8791 -0.2161 -0.4563
-6 1 24 0.1413 -5.9990 1.0040 23.9857 -0.4369 0.5440 -0.7266
8 15 -17 0.1440 8.0036 14.9945 -16.9936 0.6338 -0.7567 0.0464
-24 10 5 0.2231 -23.9912 10.0098 4.9802 -0.7587 -0.4761 -0.4798
15 -15 -12 0.1952 14.9918 -15.0061 -11.9805 0.4552 0.2914 0.8181
-18 -11 -15 0.1820 -17.9990 -10.9924 -14.9997 -0.6094 -0.3697 0.7353
-12 3 21 0.1732 -11.9968 3.0062 20.9828 -0.5900 0.3222 -0.7097
17 13 -13 0.1656 17.0008 12.9910 -12.9894 0.8809 -0.4648 0.0052
-17 -14 13 0.1962 -17.0011 -13.9909 12.9898 -0.8932 0.4918 0.0249
14 4 20 0.1286 13.9974 3.9949 19.9979 0.3338 0.6387 -0.6733
-1 17 17 0.2322 -0.9946 17.0003 16.9856 0.0047 -0.0090 -1.0013
2 -17 -17 0.2018 1.9944 -17.0007 -16.9851 0.0300 0.0233 1.0027
20 -8 13 0.1843 19.9922 -8.0072 13.0089 0.4638 0.8574 -0.1021
-21 -13 7 0.1749 -20.9996 -12.9896 6.9897 -0.9592 0.2435 0.1609
-14 15 -14 0.1897 -13.9913 15.0040 -14.0076 -0.1592 -0.9885 -0.0716
loop_
_geom_angle_atom_site_label_1
_geom_angle_atom_site_label_2
_geom_angle_atom_site_label_3
_geom_angle
_geom_angle_site_symmetry_1
_geom_angle_site_symmetry_3
F11 Xe1 F15 79.6(3) . .
F11 Xe1 F12 79.5(3) . .
F15 Xe1 F12 88.8(3) . .
F11 Xe1 F14 80.0(3) . .
F15 Xe1 F14 87.7(4) . .
F12 Xe1 F14 159.5(3) . .
F11 Xe1 F13 80.0(4) . .
F15 Xe1 F13 159.6(3) . .
F12 Xe1 F13 88.0(3) . .
F14 Xe1 F13 88.3(4) . .
F21 Xe2 F29 87.4(7) . .
F21 Xe2 F24 131.5(10) . .
F29 Xe2 F24 81.3(6) . .
F21 Xe2 F26 134.5(10) . .
F29 Xe2 F26 83.5(5) . .
F24 Xe2 F26 90.9(10) . .
F21 Xe2 F27 91.5(14) . .
F29 Xe2 F27 78.4(8) . .
F24 Xe2 F27 131.0(13) . .
F26 Xe2 F27 43.0(12) . .
F21 Xe2 F23 97.0(17) . .
F29 Xe2 F23 80.8(10) . .
F24 Xe2 F23 34.8(13) . .
F26 Xe2 F23 125.1(17) . .
F27 Xe2 F23 157.2(14) . .
F21 Xe2 F25 159.8(13) . .
F29 Xe2 F25 74.7(11) . .
F24 Xe2 F25 55.7(16) . .
F26 Xe2 F25 35.6(14) . .
F27 Xe2 F25 76.0(17) . .
F23 Xe2 F25 89(2) . .
F21 Xe2 F22 46.0(9) . .
F29 Xe2 F22 78.5(5) . .
F24 Xe2 F22 85.5(9) . .
F26 Xe2 F22 161.9(6) . .
F27 Xe2 F22 132.0(12) . .
F23 Xe2 F22 51.1(16) . .
F25 Xe2 F22 135.3(15) . .
F21 Xe2 F28 50.4(9) . .
F29 Xe2 F28 77.4(6) . .
F24 Xe2 F28 158.5(7) . .
F26 Xe2 F28 84.1(10) . .
F27 Xe2 F28 41.1(11) . .
F23 Xe2 F28 141.1(15) . .
F25 Xe2 F28 114.9(15) . .
F22 Xe2 F28 92.8(9) . .
F21 Xe2 F4A 83.6(7) . .
F29 Xe2 F4A 144.9(3) . .
F24 Xe2 F4A 79.7(6) . .
F26 Xe2 F4A 125.8(5) . .
F27 Xe2 F4A 135.5(8) . .
F23 Xe2 F4A 66.8(10) . .
F25 Xe2 F4A 116.5(12) . .
F22 Xe2 F4A 70.9(5) . .
F28 Xe2 F4A 120.0(6) . .
F21 Xe2 F6C 82.7(7) . .
F29 Xe2 F6C 144.8(3) . .
F24 Xe2 F6C 129.4(5) . .
F26 Xe2 F6C 79.8(6) . .
F27 Xe2 F6C 68.3(8) . .
F23 Xe2 F6C 133.8(10) . .
F25 Xe2 F6C 106.5(13) . .
F22 Xe2 F6C 115.9(5) . .
F28 Xe2 F6C 70.2(5) . .
F4A Xe2 F6C 67.3(2) . .
F33 Xe3 F32 79.5(5) . .
F33 Xe3 F34 87.6(3) . 3_655
F32 Xe3 F34 79.5(2) . 3_655
F33 Xe3 F34 87.6(3) . .
F32 Xe3 F34 79.5(2) . .
F34 Xe3 F34 158.9(4) 3_655 .
F33 Xe3 F31 158.6(4) . .
F32 Xe3 F31 79.1(5) . .
F34 Xe3 F31 88.5(3) 3_655 .
F34 Xe3 F31 88.5(3) . .
F1F Ti1 F1A 97.7(5) . .
F1F Ti1 F1B 97.8(4) . .
F1A Ti1 F1B 97.8(4) . .
F1F Ti1 F1C 169.5(4) . .
F1A Ti1 F1C 89.2(4) . .
F1B Ti1 F1C 89.1(4) . .
F1F Ti1 F1D 89.3(4) . .
F1A Ti1 F1D 169.9(3) . .
F1B Ti1 F1D 88.3(3) . .
F1C Ti1 F1D 82.8(3) . .
F1F Ti1 F1E 89.0(4) . .
F1A Ti1 F1E 89.3(3) . .
F1B Ti1 F1E 169.4(3) . .
F1C Ti1 F1E 83.2(3) . .
F1D Ti1 F1E 83.6(2) . .
F2A Ti2 F2C 97.0(3) . .
F2A Ti2 F2C 97.0(3) . 3_655
F2C Ti2 F2C 98.4(4) . 3_655
F2A Ti2 F2B 90.4(3) . 3_655
F2C Ti2 F2B 168.4(3) . 3_655
F2C Ti2 F2B 89.5(2) 3_655 3_655
F2A Ti2 F2B 90.4(3) . .
F2C Ti2 F2B 89.5(2) . .
F2C Ti2 F2B 168.4(3) 3_655 .
F2B Ti2 F2B 81.5(3) 3_655 .
F2A Ti2 F2D 172.1(4) . .
F2C Ti2 F2D 88.1(2) . .
F2C Ti2 F2D 88.1(2) 3_655 .
F2B Ti2 F2D 83.7(2) 3_655 .
F2B Ti2 F2D 83.7(2) . .
F3C Ti3 F3A 96.9(6) . .
F3C Ti3 F3D 97.2(4) . .
F3A Ti3 F3D 97.3(5) . .
F3C Ti3 F3B 91.9(5) . .
F3A Ti3 F3B 168.6(5) . .
F3D Ti3 F3B 88.8(4) . .
F3C Ti3 F1D 172.5(4) . .
F3A Ti3 F1D 88.0(5) . .
F3D Ti3 F1D 87.8(3) . .
F3B Ti3 F1D 82.6(3) . .
F3C Ti3 F3E 90.6(3) . .
F3A Ti3 F3E 89.2(4) . .
F3D Ti3 F3E 169.2(3) . .
F3B Ti3 F3E 83.4(3) . .
F1D Ti3 F3E 83.8(2) . .
F4C Ti4 F4B 95.3(3) . .
F4C Ti4 F4A 96.1(3) . .
F4B Ti4 F4A 94.0(3) . .
F4C Ti4 F3E 93.0(3) . .
F4B Ti4 F3E 170.2(3) . .
F4A Ti4 F3E 90.1(3) . .
F4C Ti4 F4E 91.2(3) . .
F4B Ti4 F4E 88.8(3) . .
F4A Ti4 F4E 171.9(3) . .
F3E Ti4 F4E 86.0(2) . .
F4C Ti4 F4D 175.9(3) . .
F4B Ti4 F4D 86.5(3) . .
F4A Ti4 F4D 87.4(3) . .
F3E Ti4 F4D 84.9(2) . .
F4E Ti4 F4D 85.2(2) . .
F5A Ti5 F5B 97.0(3) . .
F5A Ti5 F5B 97.0(3) . 3_655
F5B Ti5 F5B 99.4(5) . 3_655
F5A Ti5 F4E 91.1(3) . .
F5B Ti5 F4E 167.4(3) . .
F5B Ti5 F4E 89.1(3) 3_655 .
F5A Ti5 F4E 91.1(3) . 3_655
F5B Ti5 F4E 89.1(3) . 3_655
F5B Ti5 F4E 167.4(3) 3_655 3_655
F4E Ti5 F4E 81.2(3) . 3_655
F5A Ti5 F2D 172.9(4) . .
F5B Ti5 F2D 87.5(3) . .
F5B Ti5 F2D 87.5(3) 3_655 .
F4E Ti5 F2D 83.6(2) . .
F4E Ti5 F2D 83.6(2) 3_655 .
F6A Ti6 F6B 96.2(3) . .
F6A Ti6 F6C 97.5(3) . .
F6B Ti6 F6C 94.5(3) . .
F6A Ti6 F1E 91.3(3) . .
F6B Ti6 F1E 170.4(3) . .
F6C Ti6 F1E 90.5(3) . .
F6A Ti6 F2B 90.7(3) . .
F6B Ti6 F2B 88.9(3) . .
F6C Ti6 F2B 170.7(3) . .
F1E Ti6 F2B 84.9(2) . .
F6A Ti6 F4D 174.1(3) . .
F6B Ti6 F4D 87.2(2) . .
F6C Ti6 F4D 87.0(2) . .
F1E Ti6 F4D 84.9(2) . .
F2B Ti6 F4D 84.5(2) . .
Ti1 F1C Ti1 149.9(5) . 3_655
Ti1 F1D Ti3 145.1(3) . .
Ti6 F1E Ti1 154.4(3) . .
Ti6 F2B Ti2 150.2(3) . .
Ti2 F2D Ti5 143.3(4) . .
Ti3 F3B Ti3 150.6(5) 3_655 .
Ti4 F3E Ti3 154.7(3) . .
Ti4 F4A Xe2 162.4(4) . .
Ti6 F4D Ti4 142.8(3) . .
Ti4 F4E Ti5 150.4(3) . .
Ti6 F6C Xe2 159.8(3) . .
F22 F21 F28 140.5(16) . .
F22 F21 Xe2 77.3(12) . .
F28 F21 Xe2 74.2(11) . .
F21 F22 F23 120.6(16) . .
F21 F22 Xe2 56.7(9) . .
F23 F22 Xe2 64.1(12) . .
F24 F23 F22 134(2) . .
F24 F23 Xe2 69.8(15) . .
F22 F23 Xe2 64.8(12) . .
F23 F24 F25 136(2) . .
F23 F24 Xe2 75.5(16) . .
F25 F24 Xe2 64.0(12) . .
F26 F25 F24 129(2) . .
F26 F25 Xe2 69.7(16) . .
F24 F25 Xe2 60.3(11) . .
F25 F26 F27 135(2) . .
F25 F26 Xe2 74.7(16) . .
F27 F26 Xe2 69.7(12) . .
F28 F27 F26 138(2) . .
F28 F27 Xe2 70.8(12) . .
F26 F27 Xe2 67.4(12) . .
F27 F28 F21 123.3(17) . .
F27 F28 Xe2 68.0(13) . .
F21 F28 Xe2 55.4(9) . .
loop_
_geom_bond_atom_site_label_1
_geom_bond_atom_site_label_2
_geom_bond_distance
_geom_bond_site_symmetry_2
Xe1 F11 1.806(6) .
Xe1 F15 1.818(7) .
Xe1 F12 1.827(6) .
Xe1 F14 1.833(6) .
Xe1 F13 1.836(8) .
Xe2 F21 1.595(17) .
Xe2 F29 1.786(7) .
Xe2 F24 1.794(16) .
Xe2 F26 1.803(15) .
Xe2 F27 1.83(2) .
Xe2 F23 1.85(2) .
Xe2 F25 1.85(2) .
Xe2 F22 1.862(15) .
Xe2 F28 1.865(16) .
Xe2 F4A 2.492(6) .
Xe2 F6C 2.582(6) .
Xe3 F33 1.818(11) .
Xe3 F32 1.820(9) .
Xe3 F34 1.822(8) 3_655
Xe3 F34 1.822(8) .
Xe3 F31 1.845(12) .
Ti1 F1F 1.738(8) .
Ti1 F1A 1.758(7) .
Ti1 F1B 1.801(7) .
Ti1 F1C 1.968(3) .
Ti1 F1D 1.973(5) .
Ti1 F1E 1.994(6) .
Ti2 F2A 1.750(8) .
Ti2 F2C 1.779(6) .
Ti2 F2C 1.779(5) 3_655
Ti2 F2B 1.968(5) 3_655
Ti2 F2B 1.968(5) .
Ti2 F2D 1.975(7) .
Ti3 F3C 1.728(7) .
Ti3 F3A 1.743(10) .
Ti3 F3D 1.801(7) .
Ti3 F3B 1.964(3) .
Ti3 F1D 1.973(6) .
Ti3 F3E 2.006(6) .
Ti4 F4C 1.743(6) .
Ti4 F4B 1.803(6) .
Ti4 F4A 1.822(6) .
Ti4 F3E 1.916(6) .
Ti4 F4E 1.929(5) .
Ti4 F4D 1.973(5) .
Ti5 F5A 1.733(8) .
Ti5 F5B 1.778(6) .
Ti5 F5B 1.778(6) 3_655
Ti5 F4E 1.962(5) .
Ti5 F4E 1.962(5) 3_655
Ti5 F2D 1.981(7) .
Ti6 F6A 1.731(6) .
Ti6 F6B 1.801(6) .
Ti6 F6C 1.823(6) .
Ti6 F1E 1.928(5) .
Ti6 F2B 1.937(5) .
Ti6 F4D 1.972(5) .
F1C Ti1 1.968(3) 3_655
F3B Ti3 1.964(3) 3_655
F21 F22 1.37(3) .
F21 F28 1.49(3) .
F22 F23 1.60(5) .
F23 F24 1.09(4) .
F24 F25 1.71(5) .
F25 F26 1.12(4) .
F26 F27 1.33(4) .
F27 F28 1.30(3) .
loop_
_geom_torsion_atom_site_label_1
_geom_torsion_atom_site_label_2
_geom_torsion_atom_site_label_3
_geom_torsion_atom_site_label_4
_geom_torsion
F4C Ti4 F4A Xe2 167.4(14)
F4B Ti4 F4A Xe2 71.6(15)
F3E Ti4 F4A Xe2 -99.5(14)
F4D Ti4 F4A Xe2 -14.6(14)
F6A Ti6 F6C Xe2 -167.7(10)
F6B Ti6 F6C Xe2 -70.9(11)
F1E Ti6 F6C Xe2 100.9(11)
F4D Ti6 F6C Xe2 16.1(11)
F29 Xe2 F21 F22 76.5(9)
F24 Xe2 F21 F22 0.5(15)
F26 Xe2 F21 F22 154.7(10)
F27 Xe2 F21 F22 154.8(11)
F23 Xe2 F21 F22 -4.0(13)
F25 Xe2 F21 F22 104(5)
F28 Xe2 F21 F22 152.3(14)
F4A Xe2 F21 F22 -69.6(9)
F6C Xe2 F21 F22 -137.4(9)
F29 Xe2 F21 F28 -75.8(9)
F24 Xe2 F21 F28 -151.8(10)
F26 Xe2 F21 F28 2.4(14)
F27 Xe2 F21 F28 2.5(12)
F23 Xe2 F21 F28 -156.3(13)
F25 Xe2 F21 F28 -49(5)
F22 Xe2 F21 F28 -152.3(14)
F4A Xe2 F21 F28 138.1(9)
F6C Xe2 F21 F28 70.3(8)
F28 F21 F22 F23 50(3)
Xe2 F21 F22 F23 5.3(18)
F28 F21 F22 Xe2 45(2)
F29 Xe2 F22 F21 -97.6(11)
F24 Xe2 F22 F21 -179.6(11)
F26 Xe2 F22 F21 -100(3)
F27 Xe2 F22 F21 -35.0(16)
F23 Xe2 F22 F21 174.9(17)
F25 Xe2 F22 F21 -151.5(19)
F28 Xe2 F22 F21 -21.0(11)
F4A Xe2 F22 F21 99.8(10)
F6C Xe2 F22 F21 48.3(11)
F21 Xe2 F22 F23 -174.9(17)
F29 Xe2 F22 F23 87.5(13)
F24 Xe2 F22 F23 5.5(14)
F26 Xe2 F22 F23 85(3)
F27 Xe2 F22 F23 150.1(17)
F25 Xe2 F22 F23 34(2)
F28 Xe2 F22 F23 164.0(14)
F4A Xe2 F22 F23 -75.1(13)
F6C Xe2 F22 F23 -126.6(13)
F21 F22 F23 F24 -17(4)
Xe2 F22 F23 F24 -12(3)
F21 F22 F23 Xe2 -4.9(16)
F21 Xe2 F23 F24 174.1(17)
F29 Xe2 F23 F24 87.8(18)
F26 Xe2 F23 F24 13(2)
F27 Xe2 F23 F24 63(5)
F25 Xe2 F23 F24 13(2)
F22 Xe2 F23 F24 170(2)
F28 Xe2 F23 F24 144.5(17)
F4A Xe2 F23 F24 -106.0(19)
F6C Xe2 F23 F24 -99(2)
F21 Xe2 F23 F22 3.7(12)
F29 Xe2 F23 F22 -82.5(10)
F24 Xe2 F23 F22 -170(2)
F26 Xe2 F23 F22 -157.8(9)
F27 Xe2 F23 F22 -107(4)
F25 Xe2 F23 F22 -157.1(15)
F28 Xe2 F23 F22 -26(2)
F4A Xe2 F23 F22 83.6(12)
F6C Xe2 F23 F22 90.3(17)
F22 F23 F24 F25 -9(6)
Xe2 F23 F24 F25 -21(3)
F22 F23 F24 Xe2 12(3)
F21 Xe2 F24 F23 -8(2)
F29 Xe2 F24 F23 -86.5(19)
F26 Xe2 F24 F23 -169.8(19)
F27 Xe2 F24 F23 -153(2)
F25 Xe2 F24 F23 -164(2)
F22 Xe2 F24 F23 -7.5(19)
F28 Xe2 F24 F23 -94(3)
F4A Xe2 F24 F23 63.9(19)
F6C Xe2 F24 F23 112.7(19)
F21 Xe2 F24 F25 156.0(16)
F29 Xe2 F24 F25 77.3(14)
F26 Xe2 F24 F25 -5.9(15)
F27 Xe2 F24 F25 11.2(18)
F23 Xe2 F24 F25 164(2)
F22 Xe2 F24 F25 156.4(15)
F28 Xe2 F24 F25 70(3)
F4A Xe2 F24 F25 -132.2(14)
F6C Xe2 F24 F25 -83.4(15)
F23 F24 F25 F26 35(6)
Xe2 F24 F25 F26 12(3)
F23 F24 F25 Xe2 23(3)
F21 Xe2 F25 F26 72(5)
F29 Xe2 F25 F26 100.4(19)
F24 Xe2 F25 F26 -170(3)
F27 Xe2 F25 F26 18.9(18)
F23 Xe2 F25 F26 -179(2)
F22 Xe2 F25 F26 155.6(13)
F28 Xe2 F25 F26 32(2)
F4A Xe2 F25 F26 -115.4(17)
F6C Xe2 F25 F26 -43(2)
F21 Xe2 F25 F24 -118(4)
F29 Xe2 F25 F24 -89.8(11)
F26 Xe2 F25 F24 170(3)
F27 Xe2 F25 F24 -171.3(14)
F23 Xe2 F25 F24 -9.1(14)
F22 Xe2 F25 F24 -35(2)
F28 Xe2 F25 F24 -157.7(9)
F4A Xe2 F25 F24 54.4(14)
F6C Xe2 F25 F24 126.8(9)
F24 F25 F26 F27 -49(5)
Xe2 F25 F26 F27 -38(3)
F24 F25 F26 Xe2 -11(3)
F21 Xe2 F26 F25 -153(2)
F29 Xe2 F26 F25 -73(2)
F24 Xe2 F26 F25 8(2)
F27 Xe2 F26 F25 -153(3)
F23 Xe2 F26 F25 1(3)
F22 Xe2 F26 F25 -70(4)
F28 Xe2 F26 F25 -151(2)
F4A Xe2 F26 F25 86(2)
F6C Xe2 F26 F25 138(2)
F21 Xe2 F26 F27 0.1(17)
F29 Xe2 F26 F27 79.9(13)
F24 Xe2 F26 F27 161.0(14)
F23 Xe2 F26 F27 153.9(17)
F25 Xe2 F26 F27 153(3)
F22 Xe2 F26 F27 83(4)
F28 Xe2 F26 F27 2.0(14)
F4A Xe2 F26 F27 -121.1(12)
F6C Xe2 F26 F27 -69.0(13)
F25 F26 F27 F28 35(5)
Xe2 F26 F27 F28 -4(3)
F25 F26 F27 Xe2 39(3)
F21 Xe2 F27 F28 -2.9(14)
F29 Xe2 F27 F28 84.1(12)
F24 Xe2 F27 F28 151.5(12)
F26 Xe2 F27 F28 177(2)
F23 Xe2 F27 F28 109(4)
F25 Xe2 F27 F28 161.0(17)
F22 Xe2 F27 F28 21.5(19)
F4A Xe2 F27 F28 -85.3(17)
F6C Xe2 F27 F28 -84.4(13)
F21 Xe2 F27 F26 -179.9(12)
F29 Xe2 F27 F26 -92.9(12)
F24 Xe2 F27 F26 -25.5(18)
F23 Xe2 F27 F26 -68(5)
F25 Xe2 F27 F26 -16.0(15)
F22 Xe2 F27 F26 -155.6(11)
F28 Xe2 F27 F26 -177(2)
F4A Xe2 F27 F26 97.7(16)
F6C Xe2 F27 F26 98.5(12)
F26 F27 F28 F21 8(4)
Xe2 F27 F28 F21 3.7(18)
F26 F27 F28 Xe2 4(3)
F22 F21 F28 F27 -50(3)
Xe2 F21 F28 F27 -4(2)
F22 F21 F28 Xe2 -45(2)
F21 Xe2 F28 F27 176.2(18)
F29 Xe2 F28 F27 -86.6(14)
F24 Xe2 F28 F27 -79(3)
F26 Xe2 F28 F27 -2.0(14)
F23 Xe2 F28 F27 -144(2)
F25 Xe2 F28 F27 -20.4(19)
F22 Xe2 F28 F27 -164.2(14)
F4A Xe2 F28 F27 126.3(13)
F6C Xe2 F28 F27 79.2(13)
F29 Xe2 F28 F21 97.1(10)
F24 Xe2 F28 F21 104(3)
F26 Xe2 F28 F21 -178.3(10)
F27 Xe2 F28 F21 -176.2(18)
F23 Xe2 F28 F21 39(2)
F25 Xe2 F28 F21 163.4(15)
F22 Xe2 F28 F21 19.6(10)
F4A Xe2 F28 F21 -50.0(11)
F6C Xe2 F28 F21 -97.0(9)
