#------------------------------------------------------------------------------
#$Date: 2016-02-13 21:28:24 +0200 (Sat, 13 Feb 2016) $
#$Revision: 176429 $
#$URL: svn://www.crystallography.net/cod/cif/7/22/29/7222944.cif $
#------------------------------------------------------------------------------
#
# This file is available in the Crystallography Open Database (COD),
# http://www.crystallography.net/
#
# All data on this site have been placed in the public domain by the
# contributors.
#
data_7222944
loop_
_publ_author_name
'Babel, D.'
'Otto, M.'
_publ_section_title
;
 Die Jahn-Teller-Verzerrung in den Kristallstrukturen der
 Dinatrium-Tetrafluorometallate Na2CuF4 und Na/2CrF4
;
_journal_name_full
;
Zeitschrift fuer Naturforschung, Teil B. Anorganische Chemie, Organische 
Chemie (42,1987-)
;
_journal_page_first              715
_journal_page_last               720
_journal_volume                  44
_journal_year                    1989
_chemical_formula_sum            'Cr F4 Na2'
_chemical_name_systematic        'Na2 Cr F4'
_space_group_IT_number           14
_symmetry_space_group_name_Hall  '-P 2ybc'
_symmetry_space_group_name_H-M   'P 1 21/c 1'
_cell_angle_alpha                90
_cell_angle_beta                 92.85
_cell_angle_gamma                90
_cell_formula_units_Z            2
_cell_length_a                   3.348
_cell_length_b                   9.549
_cell_length_c                   5.665
_cell_volume                     180.886
_citation_journal_id_ASTM        ZNBSEN
_cod_data_source_file            Babel_ZNBSEN_1989_1967.cif
_cod_data_source_block           Cr1F4Na2
_cod_original_cell_volume        180.8863
_cod_original_formula_sum        'Cr1 F4 Na2'
_cod_database_code               7222944
loop_
_symmetry_equiv_pos_as_xyz
x,y,z
-x,y+1/2,-z+1/2
-x,-y,-z
x,-y-1/2,z-1/2
loop_
_atom_site_label
_atom_site_type_symbol
_atom_site_fract_x
_atom_site_fract_y
_atom_site_fract_z
_atom_site_occupancy
_atom_site_U_iso_or_equiv
Cr1 Cr+2 0 0 0 1 0.0
Na1 Na+1 0.5128 0.1826 0.4272 1 0.0
F1 F-1 0.5627 0.4507 0.2619 1 0.0
F2 F-1 0.0061 0.1922 0.1367 1 0.0
