#------------------------------------------------------------------------------
#$Date: 2016-02-13 21:28:24 +0200 (Sat, 13 Feb 2016) $
#$Revision: 176429 $
#$URL: svn://www.crystallography.net/cod/cif/7/22/27/7222796.cif $
#------------------------------------------------------------------------------
#
# This file is available in the Crystallography Open Database (COD),
# http://www.crystallography.net/
#
# All data on this site have been placed in the public domain by the
# contributors.
#
data_7222796
loop_
_publ_author_name
'Fleischer, T.'
'Hoppe, R.'
_publ_section_title
;
 Zur Rutilverwandschaft: Ueber neue Fluoride des Typs Li M(II) M(III) F6
 mit M(III) = Co,Ni und M(II) = Mg, Ca, Sr, Ba, Ni, Cu, Zn, Cd
;
_journal_name_full
;
Zeitschrift fuer Naturforschung, Teil B. Anorganische Chemie, Organische 
Chemie (33,1978-41,1986)
;
_journal_page_first              988
_journal_page_last               994
_journal_volume                  37
_journal_year                    1982
_chemical_formula_sum            'Co F6 Li Mg'
_chemical_name_systematic        'Li Mg (Co F6)'
_space_group_IT_number           136
_symmetry_space_group_name_Hall  '-P 4n 2n'
_symmetry_space_group_name_H-M   'P 42/m n m'
_cell_angle_alpha                90
_cell_angle_beta                 90
_cell_angle_gamma                90
_cell_formula_units_Z            2
_cell_length_a                   4.6039
_cell_length_b                   4.6039
_cell_length_c                   9.0508
_cell_volume                     191.840
_citation_journal_id_ASTM        ZNBAD2
_cod_data_source_file            Fleischer_ZNBAD2_1982_128.cif
_cod_data_source_block           Co1F6Li1Mg1
_cod_original_cell_volume        191.8398
_cod_original_formula_sum        'Co1 F6 Li1 Mg1'
_cod_database_code               7222796
loop_
_symmetry_equiv_pos_as_xyz
x,y,z
-y+1/2,x+1/2,z+1/2
-x,-y,z
y+1/2,-x+1/2,z+1/2
x+1/2,-y+1/2,-z+1/2
y,x,-z
-x+1/2,y+1/2,-z+1/2
-y,-x,-z
-x,-y,-z
y-1/2,-x-1/2,-z-1/2
x,y,-z
-y-1/2,x-1/2,-z-1/2
-x-1/2,y-1/2,z-1/2
-y,-x,z
x-1/2,-y-1/2,z-1/2
y,x,z
loop_
_atom_site_label
_atom_site_type_symbol
_atom_site_fract_x
_atom_site_fract_y
_atom_site_fract_z
_atom_site_occupancy
_atom_site_U_iso_or_equiv
F2 F-1 0.308 0.308 0.339 1 0.0
Co1 Co+3 0 0 0 1 0.0
Mg1 Mg+2 0 0 0.334 0.5 0.0
F1 F-1 0.296 0.296 0 1 0.0
Li1 Li+1 0 0 0.334 0.5 0.0
