#------------------------------------------------------------------------------
#$Date: 2020-06-05 13:54:18 +0300 (Fri, 05 Jun 2020) $
#$Revision: 252809 $
#$URL: file:///home/coder/svn-repositories/cod/cif/7/70/40/7704053.cif $
#------------------------------------------------------------------------------
#
# This file is available in the Crystallography Open Database (COD),
# http://www.crystallography.net/
#
# All data on this site have been placed in the public domain by the
# contributors.
#
data_7704053
loop_
_publ_author_name
'Ayer, Gyanendra B.'
'Klepov, Vladislav V.'
'Pace, Kristen A.'
'Zur Loye, Hans-Conrad'
_publ_section_title
;
 Quaternary cerium(iv) containing fluorides exhibiting
 Ce<sub>3</sub>F<sub>16</sub> sheets and Ce<sub>6</sub>F<sub>30</sub>
 frameworks.
;
_journal_issue                   18
_journal_name_full
'Dalton transactions (Cambridge, England : 2003)'
_journal_page_first              5898
_journal_page_last               5905
_journal_paper_doi               10.1039/d0dt00616e
_journal_volume                  49
_journal_year                    2020
_chemical_formula_sum            'Ce3 Co Cs2 F16'
_chemical_formula_weight         1049.11
_space_group_crystal_system      hexagonal
_space_group_IT_number           194
_space_group_name_Hall           '-P 6c 2c'
_space_group_name_H-M_alt        'P 63/m m c'
_audit_creation_method           SHELXL-2018/1
_audit_update_record
;
2020-02-09 deposited with the CCDC.	2020-04-12 downloaded from the CCDC.
;
_cell_angle_alpha                90
_cell_angle_beta                 90
_cell_angle_gamma                120
_cell_formula_units_Z            2
_cell_length_a                   7.8823(2)
_cell_length_b                   7.8823(2)
_cell_length_c                   12.9303(3)
_cell_measurement_reflns_used    9963
_cell_measurement_temperature    300(2)
_cell_measurement_theta_max      33.10
_cell_measurement_theta_min      2.98
_cell_volume                     695.74(3)
_computing_structure_refinement  'SHELXL-2018/1 (Sheldrick, 2018)'
_diffrn_ambient_temperature      300(2)
_diffrn_measured_fraction_theta_full 0.989
_diffrn_measured_fraction_theta_max 0.991
_diffrn_measurement_device_type  'Bruker D8 QUEST'
_diffrn_radiation_type           MoK\a
_diffrn_radiation_wavelength     0.71073
_diffrn_reflns_av_R_equivalents  0.0280
_diffrn_reflns_av_unetI/netI     0.0058
_diffrn_reflns_Laue_measured_fraction_full 0.989
_diffrn_reflns_Laue_measured_fraction_max 0.991
_diffrn_reflns_limit_h_max       10
_diffrn_reflns_limit_h_min       -10
_diffrn_reflns_limit_k_max       10
_diffrn_reflns_limit_k_min       -10
_diffrn_reflns_limit_l_max       16
_diffrn_reflns_limit_l_min       -16
_diffrn_reflns_number            18480
_diffrn_reflns_point_group_measured_fraction_full 0.989
_diffrn_reflns_point_group_measured_fraction_max 0.991
_diffrn_reflns_theta_full        25.242
_diffrn_reflns_theta_max         27.469
_diffrn_reflns_theta_min         2.984
_exptl_absorpt_coefficient_mu    16.125
_exptl_absorpt_correction_T_max  0.4954
_exptl_absorpt_correction_T_min  0.4082
_exptl_absorpt_correction_type   multi-scan
_exptl_absorpt_process_details
;
 Reference: Krause, L., Herbst-Irmer, R., Sheldrick G.M. & Stalke D.,
 J. Appl. Cryst. 48 (2015) 3-10.
;
_exptl_crystal_colour            colourless
_exptl_crystal_density_diffrn    5.008
_exptl_crystal_description       plate
_exptl_crystal_F_000             910
_exptl_crystal_size_max          0.030
_exptl_crystal_size_mid          0.030
_exptl_crystal_size_min          0.010
_refine_diff_density_max         0.643
_refine_diff_density_min         -0.849
_refine_diff_density_rms         0.091
_refine_ls_extinction_method     none
_refine_ls_goodness_of_fit_ref   1.220
_refine_ls_hydrogen_treatment    undef
_refine_ls_matrix_type           full
_refine_ls_number_parameters     28
_refine_ls_number_reflns         338
_refine_ls_number_restraints     0
_refine_ls_restrained_S_all      1.220
_refine_ls_R_factor_all          0.0114
_refine_ls_R_factor_gt           0.0113
_refine_ls_shift/su_max          0.000
_refine_ls_shift/su_mean         0.000
_refine_ls_structure_factor_coef Fsqd
_refine_ls_weighting_details
'w=1/[\s^2^(Fo^2^)+(0.0047P)^2^+2.3895P] where P=(Fo^2^+2Fc^2^)/3'
_refine_ls_weighting_scheme      calc
_refine_ls_wR_factor_gt          0.0236
_refine_ls_wR_factor_ref         0.0236
_reflns_Friedel_coverage         0.000
_reflns_number_gt                337
_reflns_number_total             338
_reflns_threshold_expression     'I > 2\s(I)'
_cod_data_source_file            d0dt00616e2.cif
_cod_data_source_block           Cs2MnCe2F16
_cod_depositor_comments
'Adding full bibliography for 7704051--7704058.cif.'
_cod_original_cell_volume        695.74(4)
_cod_database_code               7704053
_shelx_shelxl_version_number     2018/1
_shelx_space_group_comment
;
The symmetry employed for this shelxl refinement is uniquely defined
by the following loop, which should always be used as a source of
symmetry information in preference to the above space-group names.
They are only intended as comments.
;
_shelx_estimated_absorpt_t_min   0.643
_shelx_estimated_absorpt_t_max   0.855
_shelx_res_file
;
TITL 1 in P6(3)/mmc
    1.res
    created by SHELXL-2018/1 at 13:10:49 on 01-Apr-2018
CELL 0.71073   7.88230   7.88230  12.93030  90.0000  90.0000 120.0000
ZERR    2.00   0.00020   0.00020   0.00030   0.0000   0.0000   0.0000
LATT  1
SYMM -Y, X-Y, Z
SYMM -X+Y, -X, Z
SYMM -X, -Y, 0.5+Z
SYMM Y, -X+Y, 0.5+Z
SYMM X-Y, X, 0.5+Z
SYMM Y, X, -Z
SYMM X-Y, -Y, -Z
SYMM -X, -X+Y, -Z
SYMM -Y, -X, 0.5-Z
SYMM -X+Y, Y, 0.5-Z
SYMM X, X-Y, 0.5-Z
SFAC F CO CS CE
UNIT 32 2 4 6
TEMP 26.850
SIZE 0.01 0.03 0.03
L.S. 12
BOND
FMAP 2
PLAN 20
OMIT -4 55
ACTA

WGHT    0.004700    2.389500
FVAR       0.06505
CE1   4    0.340257    0.170129    0.250000    10.25000    0.00505    0.00723 =
         0.00855    0.00000    0.00000    0.00253
CS1   3    0.333333    0.666667    0.058632    10.16667    0.03344    0.03344 =
         0.01841    0.00000    0.00000    0.01672
F1    1    0.175659    0.351317    0.250000    10.25000    0.01277    0.01265 =
         0.02289    0.00000    0.00000    0.00633
F2    1    0.000000    0.000000    0.250000    10.08333    0.00726    0.00726 =
         0.02183    0.00000    0.00000    0.00363
F3    1    0.242060    0.121030    0.410524    10.50000    0.01187    0.02679 =
         0.01215    0.00051    0.00102    0.00594
F4    1    0.552462    0.447538    0.157235    10.50000    0.01270    0.01270 =
         0.01127    0.00067   -0.00067    0.00310
CO1   2    0.000000    0.000000    0.500000    10.08333    0.00907    0.00907 =
         0.00665    0.00000    0.00000    0.00454
HKLF 4




REM  1 in P6(3)/mmc
REM R1 =  0.0113 for     337 Fo > 4sig(Fo)  and  0.0114 for all     338 data
REM     28 parameters refined using      0 restraints

END

WGHT      0.0016      2.5612

REM Highest difference peak  0.643,  deepest hole -0.849,  1-sigma level  0.091
Q1    1   0.2871  0.5742  0.0385  10.50000  0.05    0.64
Q2    1   0.0000  0.0000  0.1889  10.16667  0.05    0.46
Q3    1   0.6667  0.3333  0.1348  10.16667  0.05    0.38
Q4    1  -0.0443 -0.0887  0.2500  10.25000  0.05    0.37
Q5    1   0.2548  0.5097  0.2500  10.25000  0.05    0.30
Q6    1   0.1656  0.0828  0.3514  10.50000  0.05    0.27
Q7    1   0.0000  0.0000  0.6141  10.16667  0.05    0.25
Q8    1   0.5764  0.4236  0.2241  10.50000  0.05    0.25
Q9    1   0.3544  0.1772  0.3672  10.50000  0.05    0.24
Q10   1   0.4105  0.8211  0.1116  10.50000  0.05    0.22
Q11   1   0.3011  0.1506  0.3351  10.50000  0.05    0.21
Q12   1   0.5941  0.4059  0.1563  10.50000  0.05    0.21
Q13   1   0.0508  0.2685  0.2500  10.50000  0.05    0.20
Q14   1   0.3145  0.4587  0.2500  10.50000  0.05    0.20
Q15   1   0.0254  0.3948  0.2500  10.50000  0.05    0.20
Q16   1   0.5758  0.4242  0.0954  10.50000  0.05    0.19
Q17   1   0.1900  0.3800  0.2064  10.50000  0.05    0.19
Q18   1   0.1354  0.2709  0.2500  10.25000  0.05    0.19
Q19   1   0.4614  0.3470  0.1858  11.00000  0.05    0.18
Q20   1   0.5442  0.6502  0.0944  11.00000  0.05    0.17
;
_shelx_res_checksum              29055
loop_
_space_group_symop_operation_xyz
'x, y, z'
'-y, x-y, z'
'-x+y, -x, z'
'-x, -y, z+1/2'
'y, -x+y, z+1/2'
'x-y, x, z+1/2'
'y, x, -z'
'x-y, -y, -z'
'-x, -x+y, -z'
'-y, -x, -z+1/2'
'-x+y, y, -z+1/2'
'x, x-y, -z+1/2'
'-x, -y, -z'
'y, -x+y, -z'
'x-y, x, -z'
'x, y, -z-1/2'
'-y, x-y, -z-1/2'
'-x+y, -x, -z-1/2'
'-y, -x, z'
'-x+y, y, z'
'x, x-y, z'
'y, x, z-1/2'
'x-y, -y, z-1/2'
'-x, -x+y, z-1/2'
loop_
_atom_site_label
_atom_site_type_symbol
_atom_site_fract_x
_atom_site_fract_y
_atom_site_fract_z
_atom_site_U_iso_or_equiv
_atom_site_adp_type
_atom_site_occupancy
_atom_site_site_symmetry_order
_atom_site_calc_flag
_atom_site_refinement_flags_posn
_atom_site_refinement_flags_adp
_atom_site_refinement_flags_occupancy
_atom_site_disorder_assembly
_atom_site_disorder_group
Ce1 Ce 0.34026(4) 0.17013(2) 0.250000 0.00719(8) Uani 1 4 d S T P . .
Cs1 Cs 0.333333 0.666667 0.05863(3) 0.02843(12) Uani 1 6 d S T P . .
F1 F 0.1757(2) 0.3513(4) 0.250000 0.0161(6) Uani 1 4 d S T P . .
F2 F 0.000000 0.000000 0.250000 0.0121(9) Uani 1 12 d S T P . .
F3 F 0.2421(3) 0.12103(15) 0.41052(15) 0.0186(4) Uani 1 2 d S T P . .
F4 F 0.55246(15) 0.44754(15) 0.15723(14) 0.0137(4) Uani 1 2 d S T P . .
Co1 Co 0.000000 0.000000 0.500000 0.0083(2) Uani 1 12 d S T P . .
loop_
_atom_site_aniso_label
_atom_site_aniso_U_11
_atom_site_aniso_U_22
_atom_site_aniso_U_33
_atom_site_aniso_U_23
_atom_site_aniso_U_13
_atom_site_aniso_U_12
Ce1 0.00505(12) 0.00723(10) 0.00855(12) 0.000 0.000 0.00253(6)
Cs1 0.03344(17) 0.03344(17) 0.0184(2) 0.000 0.000 0.01672(8)
F1 0.0128(10) 0.0127(14) 0.0229(14) 0.000 0.000 0.0063(7)
F2 0.0073(13) 0.0073(13) 0.022(2) 0.000 0.000 0.0036(6)
F3 0.0119(10) 0.0268(8) 0.0122(9) 0.0005(4) 0.0010(8) 0.0059(5)
F4 0.0127(7) 0.0127(7) 0.0113(9) 0.0007(4) -0.0007(4) 0.0031(8)
Co1 0.0091(3) 0.0091(3) 0.0066(4) 0.000 0.000 0.00454(15)
loop_
_atom_type_symbol
_atom_type_description
_atom_type_scat_dispersion_real
_atom_type_scat_dispersion_imag
_atom_type_scat_source
F F 0.0171 0.0103 'International Tables Vol C Tables 4.2.6.8 and 6.1.1.4'
Co Co 0.3494 0.9721 'International Tables Vol C Tables 4.2.6.8 and 6.1.1.4'
Cs Cs -0.3680 2.1192 'International Tables Vol C Tables 4.2.6.8 and 6.1.1.4'
Ce Ce -0.2486 2.6331 'International Tables Vol C Tables 4.2.6.8 and 6.1.1.4'
loop_
_geom_angle_atom_site_label_1
_geom_angle_atom_site_label_2
_geom_angle_atom_site_label_3
_geom_angle
_geom_angle_site_symmetry_1
_geom_angle_site_symmetry_3
_geom_angle_publ_flag
F3 Ce1 F3 144.20(11) . 16_556 ?
F3 Ce1 F4 72.50(6) . 16_556 ?
F3 Ce1 F4 133.26(5) 16_556 16_556 ?
F3 Ce1 F4 72.50(6) . 17_656 ?
F3 Ce1 F4 133.26(5) 16_556 17_656 ?
F4 Ce1 F4 71.36(10) 16_556 17_656 ?
F3 Ce1 F4 133.26(5) . 2_655 ?
F3 Ce1 F4 72.50(6) 16_556 2_655 ?
F4 Ce1 F4 102.54(9) 16_556 2_655 ?
F4 Ce1 F4 62.41(8) 17_656 2_655 ?
F3 Ce1 F4 133.26(5) . . ?
F3 Ce1 F4 72.50(6) 16_556 . ?
F4 Ce1 F4 62.41(8) 16_556 . ?
F4 Ce1 F4 102.54(9) 17_656 . ?
F4 Ce1 F4 71.35(10) 2_655 . ?
F3 Ce1 F2 72.10(5) . . ?
F3 Ce1 F2 72.10(5) 16_556 . ?
F4 Ce1 F2 128.73(4) 16_556 . ?
F4 Ce1 F2 128.73(4) 17_656 . ?
F4 Ce1 F2 128.73(4) 2_655 . ?
F4 Ce1 F2 128.73(4) . . ?
F3 Ce1 F1 81.59(3) . . ?
F3 Ce1 F1 81.59(3) 16_556 . ?
F4 Ce1 F1 77.57(7) 16_556 . ?
F4 Ce1 F1 144.16(5) 17_656 . ?
F4 Ce1 F1 144.16(5) 2_655 . ?
F4 Ce1 F1 77.57(7) . . ?
F2 Ce1 F1 61.59(6) . . ?
F3 Ce1 F1 81.59(3) . 3 ?
F3 Ce1 F1 81.59(3) 16_556 3 ?
F4 Ce1 F1 144.16(5) 16_556 3 ?
F4 Ce1 F1 77.57(7) 17_656 3 ?
F4 Ce1 F1 77.57(7) 2_655 3 ?
F4 Ce1 F1 144.16(5) . 3 ?
F2 Ce1 F1 61.59(6) . 3 ?
F1 Ce1 F1 123.17(12) . 3 ?
F3 Ce1 Ce1 105.44(5) . 3_665 ?
F3 Ce1 Ce1 105.43(5) 16_556 3_665 ?
F4 Ce1 Ce1 33.55(4) 16_556 3_665 ?
F4 Ce1 Ce1 75.51(5) 17_656 3_665 ?
F4 Ce1 Ce1 75.51(5) 2_655 3_665 ?
F4 Ce1 Ce1 33.55(4) . 3_665 ?
F2 Ce1 Ce1 150.0 . 3_665 ?
F1 Ce1 Ce1 88.41(6) . 3_665 ?
F1 Ce1 Ce1 148.41(6) 3 3_665 ?
F3 Ce1 Ce1 105.44(5) . 2_655 ?
F3 Ce1 Ce1 105.44(5) 16_556 2_655 ?
F4 Ce1 Ce1 75.51(5) 16_556 2_655 ?
F4 Ce1 Ce1 33.55(4) 17_656 2_655 ?
F4 Ce1 Ce1 33.55(4) 2_655 2_655 ?
F4 Ce1 Ce1 75.51(5) . 2_655 ?
F2 Ce1 Ce1 150.0 . 2_655 ?
F1 Ce1 Ce1 148.41(6) . 2_655 ?
F1 Ce1 Ce1 88.41(6) 3 2_655 ?
Ce1 Ce1 Ce1 60.0 3_665 2_655 ?
F3 Ce1 Ce1 74.56(5) . 3 ?
F3 Ce1 Ce1 74.57(5) 16_556 3 ?
F4 Ce1 Ce1 146.45(4) 16_556 3 ?
F4 Ce1 Ce1 104.49(5) 17_656 3 ?
F4 Ce1 Ce1 104.49(5) 2_655 3 ?
F4 Ce1 Ce1 146.45(4) . 3 ?
F2 Ce1 Ce1 30.0 . 3 ?
F1 Ce1 Ce1 91.59(6) . 3 ?
F1 Ce1 Ce1 31.59(6) 3 3 ?
Ce1 Ce1 Ce1 180.0 3_665 3 ?
Ce1 Ce1 Ce1 120.0 2_655 3 ?
F4 Cs1 F4 49.96(6) 15 14_565 ?
F4 Cs1 F4 49.96(6) 15 13_665 ?
F4 Cs1 F4 49.96(6) 14_565 13_665 ?
F4 Cs1 F4 124.51(3) 15 2_665 ?
F4 Cs1 F4 83.89(5) 14_565 2_665 ?
F4 Cs1 F4 124.51(3) 13_665 2_665 ?
F4 Cs1 F4 83.89(5) 15 3_565 ?
F4 Cs1 F4 124.51(3) 14_565 3_565 ?
F4 Cs1 F4 124.51(3) 13_665 3_565 ?
F4 Cs1 F4 105.63(4) 2_665 3_565 ?
F4 Cs1 F4 124.51(3) 15 . ?
F4 Cs1 F4 124.51(3) 14_565 . ?
F4 Cs1 F4 83.89(5) 13_665 . ?
F4 Cs1 F4 105.63(4) 2_665 . ?
F4 Cs1 F4 105.63(4) 3_565 . ?
F4 Cs1 F1 119.91(4) 15 3_565 ?
F4 Cs1 F1 119.91(4) 14_565 3_565 ?
F4 Cs1 F1 168.17(5) 13_665 3_565 ?
F4 Cs1 F1 53.30(2) 2_665 3_565 ?
F4 Cs1 F1 53.30(2) 3_565 3_565 ?
F4 Cs1 F1 107.94(5) . 3_565 ?
F4 Cs1 F1 119.91(4) 15 . ?
F4 Cs1 F1 168.17(5) 14_565 . ?
F4 Cs1 F1 119.91(4) 13_665 . ?
F4 Cs1 F1 107.94(5) 2_665 . ?
F4 Cs1 F1 53.30(2) 3_565 . ?
F4 Cs1 F1 53.30(2) . . ?
F1 Cs1 F1 69.28(6) 3_565 . ?
F4 Cs1 F1 168.17(5) 15 2_665 ?
F4 Cs1 F1 119.91(4) 14_565 2_665 ?
F4 Cs1 F1 119.91(4) 13_665 2_665 ?
F4 Cs1 F1 53.30(2) 2_665 2_665 ?
F4 Cs1 F1 107.94(5) 3_565 2_665 ?
F4 Cs1 F1 53.29(2) . 2_665 ?
F1 Cs1 F1 69.28(6) 3_565 2_665 ?
F1 Cs1 F1 69.28(6) . 2_665 ?
F4 Cs1 F3 46.79(3) 15 5_564 ?
F4 Cs1 F3 46.79(3) 14_565 5_564 ?
F4 Cs1 F3 85.73(5) 13_665 5_564 ?
F4 Cs1 F3 80.35(3) 2_665 5_564 ?
F4 Cs1 F3 80.35(3) 3_565 5_564 ?
F4 Cs1 F3 169.63(5) . 5_564 ?
F1 Cs1 F3 82.43(5) 3_565 5_564 ?
F1 Cs1 F3 133.61(2) . 5_564 ?
F1 Cs1 F3 133.61(2) 2_665 5_564 ?
F4 Cs1 F3 46.79(3) 15 6_554 ?
F4 Cs1 F3 85.73(5) 14_565 6_554 ?
F4 Cs1 F3 46.79(3) 13_665 6_554 ?
F4 Cs1 F3 169.63(5) 2_665 6_554 ?
F4 Cs1 F3 80.35(3) 3_565 6_554 ?
F4 Cs1 F3 80.35(3) . 6_554 ?
F1 Cs1 F3 133.61(2) 3_565 6_554 ?
F1 Cs1 F3 82.43(5) . 6_554 ?
F1 Cs1 F3 133.61(2) 2_665 6_554 ?
F3 Cs1 F3 92.53(4) 5_564 6_554 ?
F4 Cs1 F3 85.73(5) 15 4_664 ?
F4 Cs1 F3 46.79(3) 14_565 4_664 ?
F4 Cs1 F3 46.79(3) 13_665 4_664 ?
F4 Cs1 F3 80.35(3) 2_665 4_664 ?
F4 Cs1 F3 169.63(5) 3_565 4_664 ?
F4 Cs1 F3 80.35(3) . 4_664 ?
F1 Cs1 F3 133.61(2) 3_565 4_664 ?
F1 Cs1 F3 133.61(2) . 4_664 ?
F1 Cs1 F3 82.43(5) 2_665 4_664 ?
F3 Cs1 F3 92.53(5) 5_564 4_664 ?
F3 Cs1 F3 92.53(4) 6_554 4_664 ?
Ce1 F1 Ce1 116.83(12) . 2 ?
Ce1 F1 Cs1 110.11(2) . 16_556 ?
Ce1 F1 Cs1 110.11(2) 2 16_556 ?
Ce1 F1 Cs1 110.11(2) . . ?
Ce1 F1 Cs1 110.11(2) 2 . ?
Cs1 F1 Cs1 97.96(8) 16_556 . ?
Ce1 F2 Ce1 120.0 . 3 ?
Ce1 F2 Ce1 120.0 . 2 ?
Ce1 F2 Ce1 120.0 3 2 ?
Co1 F3 Ce1 142.90(10) . . ?
Co1 F3 Cs1 111.55(7) . 4_665 ?
Ce1 F3 Cs1 105.56(7) . 4_665 ?
Ce1 F4 Ce1 112.91(7) 3_665 . ?
Ce1 F4 Cs1 111.01(5) 3_665 13_665 ?
Ce1 F4 Cs1 111.01(5) . 13_665 ?
Ce1 F4 Cs1 112.33(5) 3_665 . ?
Ce1 F4 Cs1 112.33(5) . . ?
Cs1 F4 Cs1 96.10(5) 13_665 . ?
F3 Co1 F3 180.00(9) 15_556 3 ?
F3 Co1 F3 90.38(8) 15_556 13_556 ?
F3 Co1 F3 89.62(8) 3 13_556 ?
F3 Co1 F3 89.62(8) 15_556 . ?
F3 Co1 F3 90.38(8) 3 . ?
F3 Co1 F3 180.0 13_556 . ?
F3 Co1 F3 90.38(8) 15_556 14_556 ?
F3 Co1 F3 89.62(8) 3 14_556 ?
F3 Co1 F3 90.38(8) 13_556 14_556 ?
F3 Co1 F3 89.62(8) . 14_556 ?
F3 Co1 F3 89.62(8) 15_556 2 ?
F3 Co1 F3 90.38(8) 3 2 ?
F3 Co1 F3 89.62(8) 13_556 2 ?
F3 Co1 F3 90.38(8) . 2 ?
F3 Co1 F3 180.00(9) 14_556 2 ?
loop_
_geom_bond_atom_site_label_1
_geom_bond_atom_site_label_2
_geom_bond_distance
_geom_bond_site_symmetry_2
_geom_bond_publ_flag
Ce1 F3 2.1812(19) . ?
Ce1 F3 2.1812(19) 16_556 ?
Ce1 F4 2.3152(10) 16_556 ?
Ce1 F4 2.3152(10) 17_656 ?
Ce1 F4 2.3152(10) 2_655 ?
Ce1 F4 2.3153(10) . ?
Ce1 F2 2.3227(3) . ?
Ce1 F1 2.3613(15) . ?
Ce1 F1 2.3614(15) 3 ?
Ce1 Ce1 3.8593(4) 3_665 ?
Ce1 Ce1 3.8593(4) 2_655 ?
Ce1 Ce1 4.0230(4) 3 ?
Cs1 F4 3.1972(19) 15 ?
Cs1 F4 3.1972(19) 14_565 ?
Cs1 F4 3.1972(19) 13_665 ?
Cs1 F4 3.252(2) 2_665 ?
Cs1 F4 3.252(2) 3_565 ?
Cs1 F4 3.252(2) . ?
Cs1 F1 3.2797(19) 3_565 ?
Cs1 F1 3.2798(19) . ?
Cs1 F1 3.2798(19) 2_665 ?
Cs1 F3 3.474(2) 5_564 ?
Cs1 F3 3.474(2) 6_554 ?
Cs1 F3 3.474(2) 4_664 ?
F3 Co1 2.017(2) . ?
