#------------------------------------------------------------------------------
#$Date: 2017-10-06 19:24:22 +0300 (Fri, 06 Oct 2017) $
#$Revision: 201816 $
#$URL: file:///home/coder/svn-repositories/cod/cif/9/01/64/9016413.cif $
#------------------------------------------------------------------------------
#
# This file is available in the Crystallography Open Database (COD),
# http://www.crystallography.net/. The original data for this entry
# were provided the American Mineralogist Crystal Structure Database,
# http://rruff.geo.arizona.edu/AMS/amcsd.php
#
# The file may be used within the scientific community so long as
# proper attribution is given to the journal article from which the
# data were obtained.
#
data_9016413
loop_
_publ_author_name
'Yakovenchuk, V. N.'
'Ivanyuk, G. Y.'
'Pakhomovsky, Y. A.'
'Selivanova, E. A.'
'Korchak, J. A.'
'Nikolaev, A. P.'
_publ_section_title
;
 Strontiofluorite, SrF2, a new mineral species from
 the Khibiny Massif, Kola Peninsula, Russia
;
_journal_name_full               'The Canadian Mineralogist'
_journal_page_first              1487
_journal_page_last               1492
_journal_paper_doi               10.3749/canmin.48.6.1487
_journal_volume                  48
_journal_year                    2010
_chemical_compound_source        'Khibiny Massif, Kola Peninsula, Russia'
_chemical_formula_sum            'F2 Sr'
_chemical_name_mineral           Strontiofluorite
_space_group_IT_number           225
_symmetry_space_group_name_Hall  '-F 4 2 3'
_symmetry_space_group_name_H-M   'F m -3 m'
_cell_angle_alpha                90
_cell_angle_beta                 90
_cell_angle_gamma                90
_cell_length_a                   5.713
_cell_length_b                   5.713
_cell_length_c                   5.713
_cell_volume                     186.463
_database_code_amcsd             0018325
_exptl_crystal_density_diffrn    4.475
_cod_original_sg_symbol_H-M      'F m 3 m'
_cod_original_formula_sum        'Sr F2'
_cod_database_code               9016413
loop_
_space_group_symop_operation_xyz
x,y,z
x,1/2+y,1/2+z
1/2+x,y,1/2+z
1/2+x,1/2+y,z
z,-x,y
z,1/2-x,1/2+y
1/2+z,-x,1/2+y
1/2+z,1/2-x,y
-y,z,-x
-y,1/2+z,1/2-x
1/2-y,z,1/2-x
1/2-y,1/2+z,-x
x,-y,z
x,1/2-y,1/2+z
1/2+x,-y,1/2+z
1/2+x,1/2-y,z
-z,x,-y
-z,1/2+x,1/2-y
1/2-z,x,1/2-y
1/2-z,1/2+x,-y
y,-z,x
y,1/2-z,1/2+x
1/2+y,-z,1/2+x
1/2+y,1/2-z,x
-x,y,-z
-x,1/2+y,1/2-z
1/2-x,y,1/2-z
1/2-x,1/2+y,-z
x,-z,-y
x,1/2-z,1/2-y
1/2+x,-z,1/2-y
1/2+x,1/2-z,-y
-z,y,x
-z,1/2+y,1/2+x
1/2-z,y,1/2+x
1/2-z,1/2+y,x
y,-x,-z
y,1/2-x,1/2-z
1/2+y,-x,1/2-z
1/2+y,1/2-x,-z
-x,z,y
-x,1/2+z,1/2+y
1/2-x,z,1/2+y
1/2-x,1/2+z,y
z,-y,-x
z,1/2-y,1/2-x
1/2+z,-y,1/2-x
1/2+z,1/2-y,-x
-y,x,z
-y,1/2+x,1/2+z
1/2-y,x,1/2+z
1/2-y,1/2+x,z
x,z,y
x,1/2+z,1/2+y
1/2+x,z,1/2+y
1/2+x,1/2+z,y
-z,-y,-x
-z,1/2-y,1/2-x
1/2-z,-y,1/2-x
1/2-z,1/2-y,-x
y,x,z
y,1/2+x,1/2+z
1/2+y,x,1/2+z
1/2+y,1/2+x,z
-x,-z,-y
-x,1/2-z,1/2-y
1/2-x,-z,1/2-y
1/2-x,1/2-z,-y
z,y,x
z,1/2+y,1/2+x
1/2+z,y,1/2+x
1/2+z,1/2+y,x
-y,-x,-z
-y,1/2-x,1/2-z
1/2-y,-x,1/2-z
1/2-y,1/2-x,-z
z,x,-y
z,1/2+x,1/2-y
1/2+z,x,1/2-y
1/2+z,1/2+x,-y
-y,-z,x
-y,1/2-z,1/2+x
1/2-y,-z,1/2+x
1/2-y,1/2-z,x
x,y,-z
x,1/2+y,1/2-z
1/2+x,y,1/2-z
1/2+x,1/2+y,-z
-z,-x,y
-z,1/2-x,1/2+y
1/2-z,-x,1/2+y
1/2-z,1/2-x,y
y,z,-x
y,1/2+z,1/2-x
1/2+y,z,1/2-x
1/2+y,1/2+z,-x
-x,-y,z
-x,1/2-y,1/2+z
1/2-x,-y,1/2+z
1/2-x,1/2-y,z
-z,x,y
-z,1/2+x,1/2+y
1/2-z,x,1/2+y
1/2-z,1/2+x,y
y,-z,-x
y,1/2-z,1/2-x
1/2+y,-z,1/2-x
1/2+y,1/2-z,-x
-x,y,z
-x,1/2+y,1/2+z
1/2-x,y,1/2+z
1/2-x,1/2+y,z
z,-x,-y
z,1/2-x,1/2-y
1/2+z,-x,1/2-y
1/2+z,1/2-x,-y
-y,z,x
-y,1/2+z,1/2+x
1/2-y,z,1/2+x
1/2-y,1/2+z,x
x,-y,-z
x,1/2-y,1/2-z
1/2+x,-y,1/2-z
1/2+x,1/2-y,-z
-x,z,-y
-x,1/2+z,1/2-y
1/2-x,z,1/2-y
1/2-x,1/2+z,-y
z,-y,x
z,1/2-y,1/2+x
1/2+z,-y,1/2+x
1/2+z,1/2-y,x
-y,x,-z
-y,1/2+x,1/2-z
1/2-y,x,1/2-z
1/2-y,1/2+x,-z
x,-z,y
x,1/2-z,1/2+y
1/2+x,-z,1/2+y
1/2+x,1/2-z,y
-z,y,-x
-z,1/2+y,1/2-x
1/2-z,y,1/2-x
1/2-z,1/2+y,-x
y,-x,z
y,1/2-x,1/2+z
1/2+y,-x,1/2+z
1/2+y,1/2-x,z
-x,-z,y
-x,1/2-z,1/2+y
1/2-x,-z,1/2+y
1/2-x,1/2-z,y
z,y,-x
z,1/2+y,1/2-x
1/2+z,y,1/2-x
1/2+z,1/2+y,-x
-y,-x,z
-y,1/2-x,1/2+z
1/2-y,-x,1/2+z
1/2-y,1/2-x,z
x,z,-y
x,1/2+z,1/2-y
1/2+x,z,1/2-y
1/2+x,1/2+z,-y
-z,-y,x
-z,1/2-y,1/2+x
1/2-z,-y,1/2+x
1/2-z,1/2-y,x
y,x,-z
y,1/2+x,1/2-z
1/2+y,x,1/2-z
1/2+y,1/2+x,-z
-z,-x,-y
-z,1/2-x,1/2-y
1/2-z,-x,1/2-y
1/2-z,1/2-x,-y
y,z,x
y,1/2+z,1/2+x
1/2+y,z,1/2+x
1/2+y,1/2+z,x
-x,-y,-z
-x,1/2-y,1/2-z
1/2-x,-y,1/2-z
1/2-x,1/2-y,-z
z,x,y
z,1/2+x,1/2+y
1/2+z,x,1/2+y
1/2+z,1/2+x,y
-y,-z,-x
-y,1/2-z,1/2-x
1/2-y,-z,1/2-x
1/2-y,1/2-z,-x
loop_
_atom_site_label
_atom_site_fract_x
_atom_site_fract_y
_atom_site_fract_z
Sr 0.00000 0.00000 0.00000
F 0.25000 0.25000 0.25000
loop_
_cod_related_entry_id
_cod_related_entry_database
_cod_related_entry_code
1 AMCSD 0018325
