#------------------------------------------------------------------------------
#$Date: 2016-02-14 16:26:36 +0200 (Sun, 14 Feb 2016) $
#$Revision: 176435 $
#$URL: svn://www.crystallography.net/cod/cif/1/00/10/1001054.cif $
#------------------------------------------------------------------------------
#
# This file is available in the Crystallography Open Database (COD),
# http://www.crystallography.net/
#
# All data on this site have been placed in the public domain by the
# contributors.
#
data_1001054
loop_
_publ_author_name
'Padel, L'
'Poix, P'
'Bernier, J C'
'Michel, A'
_publ_section_title
;
Structure et proprietes magnetique de la perovskite Ba~2~ Ta Co O~6~
;
_journal_coden_ASTM              MRBUAC
_journal_name_full               'Materials Research Bulletin'
_journal_page_first              443
_journal_page_last               448
_journal_paper_doi               10.1016/0025-5408(72)90146-8
_journal_volume                  7
_journal_year                    1972
_chemical_formula_structural     '(Ba2 Ta Co O6)0.5'
_chemical_formula_sum            'Ba Co0.5 O3 Ta0.5'
_chemical_name_systematic        'Dibarium tantalum cobalt(III) oxide'
_space_group_IT_number           221
_symmetry_cell_setting           cubic
_symmetry_Int_Tables_number      221
_symmetry_space_group_name_Hall  '-P 4 2 3'
_symmetry_space_group_name_H-M   'P m -3 m'
_cell_angle_alpha                90
_cell_angle_beta                 90
_cell_angle_gamma                90
_cell_formula_units_Z            1
_cell_length_a                   4.077(3)
_cell_length_b                   4.077(3)
_cell_length_c                   4.077(3)
_cell_volume                     67.8
_refine_ls_R_factor_all          0.04
_cod_original_formula_sum        'Ba Co.5 O3 Ta.5'
_cod_database_code               1001054
loop_
_symmetry_equiv_pos_as_xyz
x,y,z
y,z,x
z,x,y
x,z,y
y,x,z
z,y,x
x,-y,-z
y,-z,-x
z,-x,-y
x,-z,-y
y,-x,-z
z,-y,-x
-x,y,-z
-y,z,-x
-z,x,-y
-x,z,-y
-y,x,-z
-z,y,-x
-x,-y,z
-y,-z,x
-z,-x,y
-x,-z,y
-y,-x,z
-z,-y,x
-x,-y,-z
-y,-z,-x
-z,-x,-y
-x,-z,-y
-y,-x,-z
-z,-y,-x
-x,y,z
-y,z,x
-z,x,y
-x,z,y
-y,x,z
-z,y,x
x,-y,z
y,-z,x
z,-x,y
x,-z,y
y,-x,z
z,-y,x
x,y,-z
y,z,-x
z,x,-y
x,z,-y
y,x,-z
z,y,-x
loop_
_atom_site_label
_atom_site_type_symbol
_atom_site_symmetry_multiplicity
_atom_site_Wyckoff_symbol
_atom_site_fract_x
_atom_site_fract_y
_atom_site_fract_z
_atom_site_occupancy
_atom_site_attached_hydrogens
_atom_site_calc_flag
Ba1 Ba2+ 1 a 0. 0. 0. 1. 0 d
Ta1 Ta5+ 1 b 0.5 0.5 0.5 0.5 0 d
Co1 Co3+ 1 b 0.5 0.5 0.5 0.5 0 d
O1 O2- 3 c 0. 0.5 0.5 1. 0 d
loop_
_atom_type_symbol
_atom_type_oxidation_number
Ba2+ 2.000
Ta5+ 5.000
Co3+ 3.000
O2- -2.000
