#------------------------------------------------------------------------------
#$Date: 2016-02-14 16:26:36 +0200 (Sun, 14 Feb 2016) $
#$Revision: 176435 $
#$URL: svn://www.crystallography.net/cod/cif/1/00/14/1001488.cif $
#------------------------------------------------------------------------------
#
# This file is available in the Crystallography Open Database (COD),
# http://www.crystallography.net/
#
# All data on this site have been placed in the public domain by the
# contributors.
#
data_1001488
loop_
_publ_author_name
'Huve, M'
'Michel, C'
'Martin, C'
'Hervieu, M'
'Maignan, A'
'Provost, J'
'Raveau, B'
_publ_section_title
;
The "1201"-phase of the "Tl-Sr-La-Cu-O" system. Homogeneity range,
structure and superconductivity
;
_journal_coden_ASTM              PHYCE6
_journal_name_full               'Physica C (Amsterdam) (152,1988-)'
_journal_page_first              214
_journal_page_last               226
_journal_paper_doi               10.1016/0921-4534(91)90030-3
_journal_volume                  179
_journal_year                    1991
_chemical_formula_structural     'Tl (Sr1.4 La0.6) Cu O5'
_chemical_formula_sum            'Cu La0.6 O5 Sr1.4 Tl'
_chemical_name_systematic
;
Thallium(III) strontium lanthanum copper oxide (1/1.4/.6/1/5)
;
_space_group_IT_number           123
_symmetry_cell_setting           tetragonal
_symmetry_Int_Tables_number      123
_symmetry_space_group_name_Hall  '-P 4 2'
_symmetry_space_group_name_H-M   'P 4/m m m'
_cell_angle_alpha                90
_cell_angle_beta                 90
_cell_angle_gamma                90
_cell_formula_units_Z            1
_cell_length_a                   3.7535(1)
_cell_length_b                   3.7535(1)
_cell_length_c                   8.9038(4)
_cell_volume                     125.4
_refine_ls_R_factor_all          0.083
_cod_original_formula_sum        'Cu La.6 O5 Sr1.4 Tl'
_cod_database_code               1001488
loop_
_symmetry_equiv_pos_as_xyz
x,y,z
-x,-y,z
-x,y,z
x,-y,z
-y,x,z
y,-x,z
y,x,z
-y,-x,z
-x,-y,-z
x,y,-z
x,-y,-z
-x,y,-z
y,-x,-z
-y,x,-z
-y,-x,-z
y,x,-z
loop_
_atom_site_label
_atom_site_type_symbol
_atom_site_symmetry_multiplicity
_atom_site_Wyckoff_symbol
_atom_site_fract_x
_atom_site_fract_y
_atom_site_fract_z
_atom_site_occupancy
_atom_site_attached_hydrogens
_atom_site_calc_flag
Tl1 Tl3+ 1 b 0. 0. 0.5 1. 0 d
Sr1 Sr2+ 2 h 0.5 0.5 0.2061(3) 0.7 0 d
La1 La3+ 2 h 0.5 0.5 0.2061(3) 0.3 0 d
Cu1 Cu2+ 1 a 0. 0. 0. 1. 0 d
O1 O2- 2 g 0. 0. 0.259(2) 1. 0 d
O2 O2- 1 d 0.5 0.5 0.5 1. 0 d
O3 O2- 2 f 0.5 0. 0. 1. 0 d
loop_
_atom_type_symbol
_atom_type_oxidation_number
Tl3+ 3.000
Sr2+ 2.000
La3+ 3.000
Cu2+ 2.400
O2- -2.000
