#------------------------------------------------------------------------------
#$Date: 2015-01-27 21:58:39 +0200 (Tue, 27 Jan 2015) $
#$Revision: 130149 $
#$URL: svn://www.crystallography.net/cod/cif/1/00/10/1001001.cif $
#------------------------------------------------------------------------------
#
# This file is available in the Crystallography Open Database (COD),
# http://www.crystallography.net/
#
# All data on this site have been placed in the public domain by the
# contributors.
#
data_1001001
loop_
_publ_author_name
'Goreaud, M'
'Raveau, B'
_publ_section_title
;
Structure cristalline de Rb~2~ Ge~4~ O~9~ et Rb~2~ Ti Ge~3~ O~9~ de
type tetragermanate et etude structurale comparee de germanates en
anneaux
;
_journal_coden_ASTM              ACBCAR
_journal_name_full               'Acta Crystallographica B (24,1968-38,1982)'
_journal_page_first              1536
_journal_page_last               1540
_journal_paper_doi               10.1107/S0567740876005724
_journal_volume                  32
_journal_year                    1976
_chemical_formula_structural     'Rb2 Ge4 O9'
_chemical_formula_sum            'Ge4 O9 Rb2'
_chemical_name_systematic
;
Dirubidium germanium tecto-octaoxotetragermanate
;
_space_group_IT_number           165
_symmetry_cell_setting           trigonal
_symmetry_Int_Tables_number      165
_symmetry_space_group_name_Hall  '-P 3 2"c'
_symmetry_space_group_name_H-M   'P -3 c 1'
_cell_angle_alpha                90
_cell_angle_beta                 90
_cell_angle_gamma                120
_cell_formula_units_Z            6
_cell_length_a                   12.08(7)
_cell_length_b                   12.08(7)
_cell_length_c                   9.86(5)
_cell_volume                     1246.1
_refine_ls_R_factor_all          0.076
_cod_database_code               1001001
loop_
_symmetry_equiv_pos_as_xyz
x,y,z
-y,x-y,z
y-x,-x,z
-y,-x,1/2+z
x,x-y,1/2+z
y-x,y,1/2+z
-x,-y,-z
y,y-x,-z
x-y,x,-z
y,x,1/2-z
-x,y-x,1/2-z
x-y,-y,1/2-z
loop_
_atom_site_label
_atom_site_type_symbol
_atom_site_symmetry_multiplicity
_atom_site_Wyckoff_symbol
_atom_site_fract_x
_atom_site_fract_y
_atom_site_fract_z
_atom_site_occupancy
_atom_site_attached_hydrogens
_atom_site_calc_flag
Rb1 Rb1+ 12 g 0.0040(8) 0.3387(8) 0.4303(4) 1. 0 d
Ge1 Ge4+ 2 b 0. 0. 0. 1. 0 d
Ge2 Ge4+ 4 d 0.3333 0.6666 0.4705(8) 1. 0 d
Ge3 Ge4+ 6 f 0. 0.1755(8) 0.75 1. 0 d
Ge4 Ge4+ 12 g 0.1500(6) 0.4824(6) 0.7201(4) 1. 0 d
O1 O2- 6 f 0. 0.4773(44) 0.75 1. 0 d
O2 O2- 12 g 0.0724(42) 0.1480(36) 0.8821(26) 1. 0 d
O3 O2- 12 g 0.1190(37) 0.3260(37) 0.6780(29) 1. 0 d
O4 O2- 12 g 0.2496(36) 0.5199(32) 0.8584(24) 1. 0 d
O5 O2- 12 g 0.1832(40) 0.5784(43) 0.5774(29) 1. 0 d
loop_
_atom_type_symbol
_atom_type_oxidation_number
Rb1+ 1.000
Ge4+ 4.000
O2- -2.000
