#------------------------------------------------------------------------------
#$Date: 2016-02-14 16:26:36 +0200 (Sun, 14 Feb 2016) $
#$Revision: 176435 $
#$URL: svn://www.crystallography.net/cod/cif/1/00/11/1001186.cif $
#------------------------------------------------------------------------------
#
# This file is available in the Crystallography Open Database (COD),
# http://www.crystallography.net/
#
# All data on this site have been placed in the public domain by the
# contributors.
#
data_1001186
loop_
_publ_author_name
'Gasperin, M'
_publ_section_title
;
Contribution a l'etude de quelques oxydes doubles que forme le tantale
avec l'etain, l'uranium et le calcium.
;
_journal_coden_ASTM              BUFCAE
_journal_name_full
;
Bulletin de la Societe Francaise de Mineralogie et de Cristallographie
(72,1949-100,1977)
;
_journal_page_first              1
_journal_page_last               21
_journal_volume                  83
_journal_year                    1960
_chemical_formula_structural     'Ca.91 Ta.84 O3'
_chemical_formula_sum            'Ca0.91 O3 Ta0.84'
_chemical_name_systematic        'Calcium tantalum oxide (.9/.8/3)'
_space_group_IT_number           221
_symmetry_cell_setting           cubic
_symmetry_Int_Tables_number      221
_symmetry_space_group_name_Hall  '-P 4 2 3'
_symmetry_space_group_name_H-M   'P m -3 m'
_cell_angle_alpha                90
_cell_angle_beta                 90
_cell_angle_gamma                90
_cell_formula_units_Z            1
_cell_length_a                   3.96
_cell_length_b                   3.96
_cell_length_c                   3.96
_cell_volume                     62.1
_exptl_crystal_density_meas      5.43
_cod_original_formula_sum        'Ca.91 O3 Ta.84'
_cod_database_code               1001186
loop_
_symmetry_equiv_pos_as_xyz
x,y,z
y,z,x
z,x,y
x,z,y
y,x,z
z,y,x
x,-y,-z
y,-z,-x
z,-x,-y
x,-z,-y
y,-x,-z
z,-y,-x
-x,y,-z
-y,z,-x
-z,x,-y
-x,z,-y
-y,x,-z
-z,y,-x
-x,-y,z
-y,-z,x
-z,-x,y
-x,-z,y
-y,-x,z
-z,-y,x
-x,-y,-z
-y,-z,-x
-z,-x,-y
-x,-z,-y
-y,-x,-z
-z,-y,-x
-x,y,z
-y,z,x
-z,x,y
-x,z,y
-y,x,z
-z,y,x
x,-y,z
y,-z,x
z,-x,y
x,-z,y
y,-x,z
z,-y,x
x,y,-z
y,z,-x
z,x,-y
x,z,-y
y,x,-z
z,y,-x
loop_
_atom_site_label
_atom_site_type_symbol
_atom_site_symmetry_multiplicity
_atom_site_Wyckoff_symbol
_atom_site_fract_x
_atom_site_fract_y
_atom_site_fract_z
_atom_site_occupancy
_atom_site_attached_hydrogens
_atom_site_calc_flag
O1 O2- 3 c 0. 0.5 0.5 1. 0 d
Ca1 Ca2+ 1 a 0. 0. 0. 0.91 0 d
Ta1 Ta5+ 1 b 0.5 0.5 0.5 0.84 0 d
loop_
_atom_type_symbol
_atom_type_oxidation_number
O2- -2.000
Ca2+ 2.000
Ta5+ 5.000
