#------------------------------------------------------------------------------
#$Date: 2015-01-27 21:58:39 +0200 (Tue, 27 Jan 2015) $
#$Revision: 130149 $
#$URL: svn://www.crystallography.net/cod/cif/1/00/17/1001703.cif $
#------------------------------------------------------------------------------
#
# This file is available in the Crystallography Open Database (COD),
# http://www.crystallography.net/
#
# All data on this site have been placed in the public domain by the
# contributors.
#
data_1001703
loop_
_publ_author_name
'Genouel, R'
'Michel, C'
'Raveau, B'
_publ_section_title
;
Powder neutron diffraction study of the ordered oxygen-deficient
perovskites (La, Sr)8 Cu8-x Fex O20
;
_journal_coden_ASTM              CMATEX
_journal_name_full               'Chemistry of Materials (1,1989-'
_journal_page_first              2181
_journal_page_last               2184
_journal_paper_doi               10.1021/cm00059a028
_journal_volume                  7
_journal_year                    1995
_chemical_formula_structural     'La6.4 Sr1.6 Cu6.8 Fe1.2 O20'
_chemical_formula_sum            'Cu6.8 Fe1.2 La6.4 O20 Sr1.6'
_chemical_name_systematic
;
Lanthanum strontium copper iron oxide (6.4/1.6/6.8/1.2/20)
;
_space_group_IT_number           127
_symmetry_cell_setting           tetragonal
_symmetry_Int_Tables_number      127
_symmetry_space_group_name_Hall  '-P 4 2ab'
_symmetry_space_group_name_H-M   'P 4/m b m'
_cell_angle_alpha                90
_cell_angle_beta                 90
_cell_angle_gamma                90
_cell_formula_units_Z            1
_cell_length_a                   10.8088(5)
_cell_length_b                   10.8088(5)
_cell_length_c                   3.8992(2)
_cell_volume                     455.5
_refine_ls_R_factor_all          0.066
_cod_database_code               1001703
loop_
_symmetry_equiv_pos_as_xyz
x,y,z
-x,-y,z
1/2+x,1/2-y,z
1/2-x,1/2+y,z
-y,x,z
y,-x,z
1/2+y,1/2+x,z
1/2-y,1/2-x,z
-x,-y,-z
x,y,-z
1/2-x,1/2+y,-z
1/2+x,1/2-y,-z
y,-x,-z
-y,x,-z
1/2-y,1/2-x,-z
1/2+y,1/2+x,-z
loop_
_atom_site_aniso_label
_atom_site_aniso_U_11
_atom_site_aniso_U_12
_atom_site_aniso_U_13
_atom_site_aniso_U_22
_atom_site_aniso_U_23
_atom_site_aniso_U_33
O2 0.0516(36) 0.0029(11) 0. 0.0516(36) 0. 0.0067(24)
O3 0.0324(20) 0.0090(25) 0. 0.0324(20) 0. 0.0078(13)
loop_
_atom_site_label
_atom_site_type_symbol
_atom_site_symmetry_multiplicity
_atom_site_Wyckoff_symbol
_atom_site_fract_x
_atom_site_fract_y
_atom_site_fract_z
_atom_site_occupancy
_atom_site_attached_hydrogens
_atom_site_calc_flag
La1 La3+ 8 j 0.2582(2) 0.4707(2) 0.5 0.8 0 d
Sr1 Sr2+ 8 j 0.2582(2) 0.4707(2) 0.5 0.2 0 d
Cu1 Cu2+ 2 a 0. 0. 0. 0.4 0 d
Fe1 Fe3+ 2 a 0. 0. 0. 0.6 0 d
Cu2 Cu2+ 2 d 0.5 0. 0. 1. 0 d
Cu3 Cu2+ 4 g 0.2202(2) 0.7202(2) 0. 1. 0 d
O1 O2- 2 b 0. 0. 0.5 1. 0 d
O2 O2- 2 c 0.5 0. 0.5 1. 0 d
O3 O2- 4 h 0.2198(3) 0.7198(3) 0.5 1. 0 d
O4 O2- 4 g 0.3754(3) 0.8754(3) 0. 1. 0 d
O5 O2- 8 i 0.1611(3) 0.0928(3) 0. 1. 0 d
loop_
_atom_type_symbol
_atom_type_oxidation_number
La3+ 3.000
Sr2+ 2.000
Cu2+ 2.059
Fe3+ 3.000
O2- -2.000
