#------------------------------------------------------------------------------
#$Date: 2016-02-14 16:26:36 +0200 (Sun, 14 Feb 2016) $
#$Revision: 176435 $
#$URL: svn://www.crystallography.net/cod/cif/1/00/14/1001492.cif $
#------------------------------------------------------------------------------
#
# This file is available in the Crystallography Open Database (COD),
# http://www.crystallography.net/
#
# All data on this site have been placed in the public domain by the
# contributors.
#
data_1001492
loop_
_publ_author_name
'Suard, E'
'Caignaert, V'
'Maignan, A'
'Raveau, B'
_publ_section_title
;
The important role of pyramidal copper layers of the 123-structure in
superconductivity. The oxides Ba~2~Y~1-x~Ca~x~Cu~3-x~Fe~x~O~7~ and
Ba~2~Y~1-x~Ca~x~Cu~3-x~Fe~x~O~6~
;
_journal_coden_ASTM              PHYCE6
_journal_name_full               'Physica C (Amsterdam) (152,1988-)'
_journal_page_first              219
_journal_page_last               227
_journal_paper_doi               10.1016/0921-4534(91)90515-Z
_journal_volume                  182
_journal_year                    1991
_chemical_formula_structural
;
(Y0.85 Ca0.15) Ba2 (Cu0.85 Fe0.15) Cu2 O7.12
;
_chemical_formula_sum            'Ba2 Ca0.15 Cu2.85 Fe0.15 O7.12 Y0.85'
_chemical_name_systematic
;
Yttrium calcium barium copper iron(III) oxide (0.9/0.1/2/2.9/0.1/7.1)
;
_space_group_IT_number           123
_symmetry_cell_setting           tetragonal
_symmetry_Int_Tables_number      123
_symmetry_space_group_name_Hall  '-P 4 2'
_symmetry_space_group_name_H-M   'P 4/m m m'
_cell_angle_alpha                90
_cell_angle_beta                 90
_cell_angle_gamma                90
_cell_formula_units_Z            1
_cell_length_a                   3.8608(1)
_cell_length_b                   3.8608(1)
_cell_length_c                   11.6653(3)
_cell_volume                     173.9
_refine_ls_R_factor_all          0.06
_cod_original_formula_sum        'Ba2 Ca.15 Cu2.85 Fe.15 O7.12 Y.85'
_cod_database_code               1001492
loop_
_symmetry_equiv_pos_as_xyz
x,y,z
-x,-y,z
-x,y,z
x,-y,z
-y,x,z
y,-x,z
y,x,z
-y,-x,z
-x,-y,-z
x,y,-z
x,-y,-z
-x,y,-z
y,-x,-z
-y,x,-z
-y,-x,-z
y,x,-z
loop_
_atom_site_label
_atom_site_type_symbol
_atom_site_symmetry_multiplicity
_atom_site_Wyckoff_symbol
_atom_site_fract_x
_atom_site_fract_y
_atom_site_fract_z
_atom_site_occupancy
_atom_site_attached_hydrogens
_atom_site_calc_flag
Y1 Y3+ 1 d 0.5 0.5 0.5 0.85 0 d
Ca1 Ca2+ 1 d 0.5 0.5 0.5 0.15 0 d
Ba1 Ba2+ 2 h 0.5 0.5 0.1873(2) 1. 0 d
Cu1 Cu2+ 1 a 0. 0. 0. 0.85 0 d
Fe1 Fe3+ 1 a 0. 0. 0. 0.15 0 d
Cu2 Cu2+ 2 g 0. 0. 0.3578(1) 1. 0 d
O1 O2- 4 i 0. 0.5 0.3764(1) 1. 0 d
O2 O2- 2 g 0. 0. 0.1553(2) 1. 0 d
O3 O2- 2 f 0. 0.5 0. 0.56(1) 0 d
loop_
_atom_type_symbol
_atom_type_oxidation_number
Y3+ 3.000
Ca2+ 2.000
Ba2+ 2.000
Cu2+ 2.435
Fe3+ 3.000
O2- -2.000
