#------------------------------------------------------------------------------
#$Date: 2015-01-27 21:58:39 +0200 (Tue, 27 Jan 2015) $
#$Revision: 130149 $
#$URL: svn://www.crystallography.net/cod/cif/1/00/17/1001775.cif $
#------------------------------------------------------------------------------
#
# This file is available in the Crystallography Open Database (COD),
# http://www.crystallography.net/
#
# All data on this site have been placed in the public domain by the
# contributors.
#
data_1001775
loop_
_publ_author_name
'Gasperin, M'
_publ_section_title
;
Synthese et identification de deux oxydes doubles de tantale et d'etain.
;
_journal_coden_ASTM              COREAF
_journal_name_full
;
Comptes Rendus Hebdomadaires des Seances de l'Academie des Sciences
(1884 - 1965)
;
_journal_page_first              2340
_journal_page_last               2342
_journal_volume                  240
_journal_year                    1955
_chemical_compound_source
;
synthetic from melt, and from Sukula, SW Finland
;
_chemical_formula_structural     'Sn (Ta O3)'
_chemical_formula_sum            'O3 Sn Ta'
_chemical_name_mineral           Sukulaite
_chemical_name_systematic        'Tin tantalate(IV)'
_space_group_IT_number           221
_symmetry_cell_setting           cubic
_symmetry_Int_Tables_number      221
_symmetry_space_group_name_Hall  '-P 4 2 3'
_symmetry_space_group_name_H-M   'P m -3 m'
_cell_angle_alpha                90
_cell_angle_beta                 90
_cell_angle_gamma                90
_cell_formula_units_Z            1
_cell_length_a                   3.880(4)
_cell_length_b                   3.880(4)
_cell_length_c                   3.880(4)
_cell_volume                     58.4
_exptl_crystal_density_meas      8.3
_cod_database_code               1001775
loop_
_symmetry_equiv_pos_as_xyz
x,y,z
y,z,x
z,x,y
x,z,y
y,x,z
z,y,x
x,-y,-z
y,-z,-x
z,-x,-y
x,-z,-y
y,-x,-z
z,-y,-x
-x,y,-z
-y,z,-x
-z,x,-y
-x,z,-y
-y,x,-z
-z,y,-x
-x,-y,z
-y,-z,x
-z,-x,y
-x,-z,y
-y,-x,z
-z,-y,x
-x,-y,-z
-y,-z,-x
-z,-x,-y
-x,-z,-y
-y,-x,-z
-z,-y,-x
-x,y,z
-y,z,x
-z,x,y
-x,z,y
-y,x,z
-z,y,x
x,-y,z
y,-z,x
z,-x,y
x,-z,y
y,-x,z
z,-y,x
x,y,-z
y,z,-x
z,x,-y
x,z,-y
y,x,-z
z,y,-x
loop_
_atom_site_label
_atom_site_type_symbol
_atom_site_symmetry_multiplicity
_atom_site_Wyckoff_symbol
_atom_site_fract_x
_atom_site_fract_y
_atom_site_fract_z
_atom_site_occupancy
_atom_site_attached_hydrogens
_atom_site_calc_flag
Sn1 Sn2+ 1 a 0. 0. 0. 1. 0 d
Ta1 Ta4+ 1 b 0.5 0.5 0.5 1. 0 d
O1 O2- 3 c 0. 0.5 0.5 1. 0 d
loop_
_atom_type_symbol
_atom_type_oxidation_number
Sn2+ 2.000
Ta4+ 4.000
O2- -2.000
