#------------------------------------------------------------------------------
#$Date: 2016-02-18 17:37:37 +0200 (Thu, 18 Feb 2016) $
#$Revision: 176729 $
#$URL: svn://www.crystallography.net/cod/cif/1/00/12/1001214.cif $
#------------------------------------------------------------------------------
#
# This file is available in the Crystallography Open Database (COD),
# http://www.crystallography.net/
#
# All data on this site have been placed in the public domain by the
# contributors.
#
data_1001214
loop_
_publ_author_name
'Groult, D'
Pannetier
'Raveau, B'
_publ_section_title
;
Neutron diffraction study of the defect pyrochlores Ta W O~5.5~, H Ta W
O~6~, H~2~ Ta~2~ O~6~, and H Ta W O~6~*H~2~ O
;
_journal_coden_ASTM              JSSCBI
_journal_name_full               'Journal of Solid State Chemistry'
_journal_page_first              277
_journal_page_last               285
_journal_paper_doi               10.1016/0022-4596(82)90147-5
_journal_volume                  41
_journal_year                    1982
_chemical_formula_structural     'D TA W O6'
_chemical_formula_sum            'D O6 Ta W'
_chemical_name_systematic        'Deuterium tantalum hexaoxotungstate'
_space_group_IT_number           227
_symmetry_cell_setting           cubic
_symmetry_space_group_name_Hall  '-F 4vw 2vw 3'
_symmetry_space_group_name_H-M   'F d -3 m :2'
_cell_angle_alpha                90
_cell_angle_beta                 90
_cell_angle_gamma                90
_cell_formula_units_Z            8
_cell_length_a                   10.4425(6)
_cell_length_b                   10.4425(6)
_cell_length_c                   10.4425(6)
_cell_volume                     1138.7
_refine_ls_R_factor_all          0.0813
_cod_original_sg_symbol_H-M      'F d -3 m Z'
_cod_database_code               1001214
loop_
_symmetry_equiv_pos_as_xyz
x,y,z
x,1/4-y,1/4-z
1/4-x,y,1/4-z
1/4-x,1/4-y,z
y,z,x
1/4-y,1/4-z,x
y,1/4-z,1/4-x
1/4-y,z,1/4-x
z,x,y
1/4-z,x,1/4-y
1/4-z,1/4-x,y
z,1/4-x,1/4-y
x,z,y
x,1/4-z,1/4-y
1/4-x,1/4-z,y
1/4-x,z,1/4-y
y,x,z
1/4-y,x,1/4-z
y,1/4-x,1/4-z
1/4-y,1/4-x,z
z,y,x
1/4-z,1/4-y,x
1/4-z,y,1/4-x
z,1/4-y,1/4-x
-x,-y,-z
-x,3/4+y,3/4+z
3/4+x,-y,3/4+z
3/4+x,3/4+y,-z
-y,-z,-x
3/4+y,3/4+z,-x
-y,3/4+z,3/4+x
3/4+y,-z,3/4+x
-z,-x,-y
3/4+z,-x,3/4+y
3/4+z,3/4+x,-y
-z,3/4+x,3/4+y
-x,-z,-y
-x,3/4+z,3/4+y
3/4+x,3/4+z,-y
3/4+x,-z,3/4+y
-y,-x,-z
3/4+y,-x,3/4+z
-y,3/4+x,3/4+z
3/4+y,3/4+x,-z
-z,-y,-x
3/4+z,3/4+y,-x
3/4+z,-y,3/4+x
-z,3/4+y,3/4+x
x,1/2+y,1/2+z
1/2+x,y,1/2+z
1/2+x,1/2+y,z
x,3/4-y,3/4-z
1/2+x,1/4-y,3/4-z
1/2+x,3/4-y,1/4-z
1/4-x,1/2+y,3/4-z
3/4-x,y,3/4-z
3/4-x,1/2+y,1/4-z
1/4-x,3/4-y,1/2+z
3/4-x,1/4-y,1/2+z
3/4-x,3/4-y,z
y,1/2+z,1/2+x
1/2+y,z,1/2+x
1/2+y,1/2+z,x
1/4-y,3/4-z,1/2+x
3/4-y,1/4-z,1/2+x
3/4-y,3/4-z,x
y,3/4-z,3/4-x
1/2+y,1/4-z,3/4-x
1/2+y,3/4-z,1/4-x
1/4-y,1/2+z,3/4-x
3/4-y,z,3/4-x
3/4-y,1/2+z,1/4-x
z,1/2+x,1/2+y
1/2+z,x,1/2+y
1/2+z,1/2+x,y
1/4-z,1/2+x,3/4-y
3/4-z,x,3/4-y
3/4-z,1/2+x,1/4-y
1/4-z,3/4-x,1/2+y
3/4-z,1/4-x,1/2+y
3/4-z,3/4-x,y
z,3/4-x,3/4-y
1/2+z,1/4-x,3/4-y
1/2+z,3/4-x,1/4-y
x,1/2+z,1/2+y
1/2+x,z,1/2+y
1/2+x,1/2+z,y
x,3/4-z,3/4-y
1/2+x,1/4-z,3/4-y
1/2+x,3/4-z,1/4-y
1/4-x,3/4-z,1/2+y
3/4-x,1/4-z,1/2+y
3/4-x,3/4-z,y
1/4-x,1/2+z,3/4-y
3/4-x,z,3/4-y
3/4-x,1/2+z,1/4-y
y,1/2+x,1/2+z
1/2+y,x,1/2+z
1/2+y,1/2+x,z
1/4-y,1/2+x,3/4-z
3/4-y,x,3/4-z
3/4-y,1/2+x,1/4-z
y,3/4-x,3/4-z
1/2+y,1/4-x,3/4-z
1/2+y,3/4-x,1/4-z
1/4-y,3/4-x,1/2+z
3/4-y,1/4-x,1/2+z
3/4-y,3/4-x,z
z,1/2+y,1/2+x
1/2+z,y,1/2+x
1/2+z,1/2+y,x
1/4-z,3/4-y,1/2+x
3/4-z,1/4-y,1/2+x
3/4-z,3/4-y,x
1/4-z,1/2+y,3/4-x
3/4-z,y,3/4-x
3/4-z,1/2+y,1/4-x
z,3/4-y,3/4-x
1/2+z,1/4-y,3/4-x
1/2+z,3/4-y,1/4-x
-x,1/2-y,1/2-z
1/2-x,-y,1/2-z
1/2-x,1/2-y,-z
-x,1/4+y,1/4+z
1/2-x,3/4+y,1/4+z
1/2-x,1/4+y,3/4+z
3/4+x,1/2-y,1/4+z
1/4+x,-y,1/4+z
1/4+x,1/2-y,3/4+z
3/4+x,1/4+y,1/2-z
1/4+x,3/4+y,1/2-z
1/4+x,1/4+y,-z
-y,1/2-z,1/2-x
1/2-y,-z,1/2-x
1/2-y,1/2-z,-x
3/4+y,1/4+z,1/2-x
1/4+y,3/4+z,1/2-x
1/4+y,1/4+z,-x
-y,1/4+z,1/4+x
1/2-y,3/4+z,1/4+x
1/2-y,1/4+z,3/4+x
3/4+y,1/2-z,1/4+x
1/4+y,-z,1/4+x
1/4+y,1/2-z,3/4+x
-z,1/2-x,1/2-y
1/2-z,-x,1/2-y
1/2-z,1/2-x,-y
3/4+z,1/2-x,1/4+y
1/4+z,-x,1/4+y
1/4+z,1/2-x,3/4+y
3/4+z,1/4+x,1/2-y
1/4+z,3/4+x,1/2-y
1/4+z,1/4+x,-y
-z,1/4+x,1/4+y
1/2-z,3/4+x,1/4+y
1/2-z,1/4+x,3/4+y
-x,1/2-z,1/2-y
1/2-x,-z,1/2-y
1/2-x,1/2-z,-y
-x,1/4+z,1/4+y
1/2-x,3/4+z,1/4+y
1/2-x,1/4+z,3/4+y
3/4+x,1/4+z,1/2-y
1/4+x,3/4+z,1/2-y
1/4+x,1/4+z,-y
3/4+x,1/2-z,1/4+y
1/4+x,-z,1/4+y
1/4+x,1/2-z,3/4+y
-y,1/2-x,1/2-z
1/2-y,-x,1/2-z
1/2-y,1/2-x,-z
3/4+y,1/2-x,1/4+z
1/4+y,-x,1/4+z
1/4+y,1/2-x,3/4+z
-y,1/4+x,1/4+z
1/2-y,3/4+x,1/4+z
1/2-y,1/4+x,3/4+z
3/4+y,1/4+x,1/2-z
1/4+y,3/4+x,1/2-z
1/4+y,1/4+x,-z
-z,1/2-y,1/2-x
1/2-z,-y,1/2-x
1/2-z,1/2-y,-x
3/4+z,1/4+y,1/2-x
1/4+z,3/4+y,1/2-x
1/4+z,1/4+y,-x
3/4+z,1/2-y,1/4+x
1/4+z,-y,1/4+x
1/4+z,1/2-y,3/4+x
-z,1/4+y,1/4+x
1/2-z,3/4+y,1/4+x
1/2-z,1/4+y,3/4+x
loop_
_atom_site_label
_atom_site_type_symbol
_atom_site_symmetry_multiplicity
_atom_site_Wyckoff_symbol
_atom_site_fract_x
_atom_site_fract_y
_atom_site_fract_z
_atom_site_occupancy
_atom_site_attached_hydrogens
_atom_site_calc_flag
Ta1 Ta5+ 16 c 0. 0. 0. 0.5 0 d
W1 W6+ 16 c 0. 0. 0. 0.5 0 d
O1 O2- 48 f 0.3093(4) 0.125 0.125 1. 0 d
D1 D1+ 48 f 0.418(4) 0.125 0.125 0.1667 0 d
loop_
_atom_type_symbol
_atom_type_oxidation_number
Ta5+ 5.000
W6+ 6.000
O2- -2.000
D1+ 1.000
