#------------------------------------------------------------------------------
#$Date: 2015-01-27 21:58:39 +0200 (Tue, 27 Jan 2015) $
#$Revision: 130149 $
#$URL: svn://www.crystallography.net/cod/cif/1/00/13/1001379.cif $
#------------------------------------------------------------------------------
#
# This file is available in the Crystallography Open Database (COD),
# http://www.crystallography.net/
#
# All data on this site have been placed in the public domain by the
# contributors.
#
data_1001379
loop_
_publ_author_name
'Roth, G'
'Heger, G'
'Renker, B'
'Pannetier, J'
'Caignaert, V'
'Hervieu, M'
'Raveau, B'
_publ_section_title
;
Crystallographic study of the tetragonal high-T~c~ superconductor Y
Ba~2~ (Cu~.95~ Fe~.05~)~3~ O~7~
;
_journal_coden_ASTM              PHYCE6
_journal_name_full               'Physica C (Amsterdam) (152,1988-)'
_journal_page_first              972
_journal_page_last               973
_journal_volume                  153
_journal_year                    1988
_chemical_formula_analytical     'Y Ba2 (Fe.05 Cu.95)3 O7'
_chemical_formula_structural     'Y Ba2 Cu2.93 O7'
_chemical_formula_sum            'Ba2 Cu2.93 O7 Y'
_chemical_name_systematic        'Yttrium barium copper oxide (1/2/2.9/7)'
_space_group_IT_number           123
_symmetry_cell_setting           tetragonal
_symmetry_Int_Tables_number      123
_symmetry_space_group_name_Hall  '-P 4 2'
_symmetry_space_group_name_H-M   'P 4/m m m'
_cell_angle_alpha                90
_cell_angle_beta                 90
_cell_angle_gamma                90
_cell_formula_units_Z            1
_cell_length_a                   3.862(1)
_cell_length_b                   3.862(1)
_cell_length_c                   11.673(3)
_cell_volume                     174.1
_refine_ls_R_factor_all          0.023
_cod_database_code               1001379
loop_
_symmetry_equiv_pos_as_xyz
x,y,z
-x,-y,z
-x,y,z
x,-y,z
-y,x,z
y,-x,z
y,x,z
-y,-x,z
-x,-y,-z
x,y,-z
x,-y,-z
-x,y,-z
y,-x,-z
-y,x,-z
-y,-x,-z
y,x,-z
loop_
_atom_site_aniso_label
_atom_site_aniso_U_11
_atom_site_aniso_U_12
_atom_site_aniso_U_13
_atom_site_aniso_U_22
_atom_site_aniso_U_23
_atom_site_aniso_U_33
Y1 0.0057(4) 0. 0. 0.0057(4) 0. 0.0081(6)
Ba1 0.0109(2) 0. 0. 0.0109(2) 0. 0.0102(2)
Cu1 0.0101(7) 0. 0. 0.0101(7) 0. 0.0064(7)
Cu2 0.0054(4) 0. 0. 0.0054(4) 0. 0.0109(8)
O1 0.037(13) 0. 0. 0.013(9) 0. 0.014(7)
O2 0.0028(18) 0. 0. 0.009(2) 0. 0.0135(16)
O3 0.0209(27) 0. 0. 0.0209(22) 0. 0.0100(24)
loop_
_atom_site_label
_atom_site_type_symbol
_atom_site_symmetry_multiplicity
_atom_site_Wyckoff_symbol
_atom_site_fract_x
_atom_site_fract_y
_atom_site_fract_z
_atom_site_occupancy
_atom_site_attached_hydrogens
_atom_site_calc_flag
Y1 Y3+ 1 d 0.5 0.5 0.5 1. 0 d
Ba1 Ba2+ 2 h 0.5 0.5 0.1855(1) 1. 0 d
Cu1 Cu3+ 1 a 0. 0. 0. 0.941(2) 0 d
Cu2 Cu2+ 2 g 0. 0. 0.3565(1) 0.996(7) 0 d
O1 O2- 2 f 0. 0.5 0. 0.484(30) 0 d
O2 O2- 4 i 0.5 0. 0.3781(4) 1. 0 d
O3 O2- 2 g 0. 0. 0.1589(7) 1. 0 d
loop_
_atom_type_symbol
_atom_type_oxidation_number
Y3+ 3.000
Ba2+ 2.000
Cu3+ 3.140
Cu2+ 2.000
O2- -2.000
