#------------------------------------------------------------------------------
#$Date: 2015-01-27 21:58:39 +0200 (Tue, 27 Jan 2015) $
#$Revision: 130149 $
#$URL: svn://www.crystallography.net/cod/cif/1/00/60/1006037.cif $
#------------------------------------------------------------------------------
#
# This file is available in the Crystallography Open Database (COD),
# http://www.crystallography.net/
#
# All data on this site have been placed in the public domain by the
# contributors.
#
data_1006037
loop_
_publ_author_name
'Salinas-Sanchez, A'
'Saez-Puche, R'
'Rodriguez-Carvajal, J'
'Martinez, J L'
_publ_section_title
;
Structural characterization of R~2~BaNiO~5~ (R=Tm and Yb): polymorphism
for R=Tm
;
_journal_coden_ASTM              SSCOA4
_journal_issue                   6
_journal_name_full               'Solid State Communications'
_journal_page_first              481
_journal_page_last               488
_journal_paper_doi               10.1016/0038-1098(91)90361-X
_journal_volume                  78
_journal_year                    1991
_chemical_formula_structural     'Tm2 Ba (Ni O5)'
_chemical_formula_sum            'Ba Ni O5 Tm2'
_chemical_name_systematic        'Dithulium barium niccolate'
_space_group_IT_number           71
_symmetry_cell_setting           orthorhombic
_symmetry_Int_Tables_number      71
_symmetry_space_group_name_Hall  '-I 2 2'
_symmetry_space_group_name_H-M   'I m m m'
_cell_angle_alpha                90
_cell_angle_beta                 90
_cell_angle_gamma                90
_cell_formula_units_Z            2
_cell_length_a                   3.75128(4)
_cell_length_b                   5.7214(1)
_cell_length_c                   11.2456(2)
_cell_volume                     241.4
_refine_ls_R_factor_all          0.041
_cod_database_code               1006037
loop_
_symmetry_equiv_pos_as_xyz
x,y,z
x,-y,-z
-x,y,-z
-x,-y,z
-x,-y,-z
-x,y,z
x,-y,z
x,y,-z
1/2+x,1/2+y,1/2+z
1/2+x,1/2-y,1/2-z
1/2-x,1/2+y,1/2-z
1/2-x,1/2-y,1/2+z
1/2-x,1/2-y,1/2-z
1/2-x,1/2+y,1/2+z
1/2+x,1/2-y,1/2+z
1/2+x,1/2+y,1/2-z
loop_
_atom_site_label
_atom_site_type_symbol
_atom_site_symmetry_multiplicity
_atom_site_Wyckoff_symbol
_atom_site_fract_x
_atom_site_fract_y
_atom_site_fract_z
_atom_site_occupancy
_atom_site_attached_hydrogens
_atom_site_calc_flag
Ba1 Ba2+ 2 d 0. 0.5 0. 1. 0 d
Tm1 Tm3+ 4 i 0. 0. 0.2032(1) 1. 0 d
Ni1 Ni2+ 2 b 0.5 0. 0. 1. 0 d
O1 O2- 8 l 0.5 0.2403(4) 0.1500(1) 1. 0 d
O2 O2- 2 a 0. 0. 0. 1. 0 d
loop_
_atom_type_symbol
_atom_type_oxidation_number
Ba2+ 2.000
Tm3+ 3.000
Ni2+ 2.000
O2- -2.000
