#------------------------------------------------------------------------------
#$Date: 2016-02-18 17:37:37 +0200 (Thu, 18 Feb 2016) $
#$Revision: 176729 $
#$URL: svn://www.crystallography.net/cod/cif/1/00/70/1007078.cif $
#------------------------------------------------------------------------------
#
# This file is available in the Crystallography Open Database (COD),
# http://www.crystallography.net/
#
# All data on this site have been placed in the public domain by the
# contributors.
#
data_1007078
loop_
_publ_author_name
'Bertaut, F'
'Durif, A'
_publ_section_title
;
Existence d'un spinelle 1.4, a cations mono- et tetravalents.
;
_journal_coden_ASTM              COREAF
_journal_name_full
;
Comptes Rendus Hebdomadaires des Seances de l'Academie des Sciences
(1884 - 1965)
;
_journal_page_first              212
_journal_page_last               214
_journal_volume                  236
_journal_year                    1953
_chemical_formula_structural     'Li4 Ti7 O16'
_chemical_formula_sum            'Li4 O16 Ti7'
_chemical_name_systematic        'Tetralithium heptatitanium oxide'
_space_group_IT_number           227
_symmetry_cell_setting           cubic
_symmetry_space_group_name_Hall  'F 4d 2 3 -1d'
_symmetry_space_group_name_H-M   'F d -3 m :1'
_cell_angle_alpha                90
_cell_angle_beta                 90
_cell_angle_gamma                90
_cell_formula_units_Z            2
_cell_length_a                   8.359
_cell_length_b                   8.359
_cell_length_c                   8.359
_cell_volume                     584.1
_cod_original_sg_symbol_H-M      'F d -3 m S'
_cod_database_code               1007078
loop_
_symmetry_equiv_pos_as_xyz
x,y,z
y,z,x
z,x,y
x,z,y
y,x,z
z,y,x
x,-y,-z
y,-z,-x
z,-x,-y
x,-z,-y
y,-x,-z
z,-y,-x
-x,y,-z
-y,z,-x
-z,x,-y
-x,z,-y
-y,x,-z
-z,y,-x
-x,-y,z
-y,-z,x
-z,-x,y
-x,-z,y
-y,-x,z
-z,-y,x
1/4-x,1/4-y,1/4-z
1/4-y,1/4-z,1/4-x
1/4-z,1/4-x,1/4-y
1/4-x,1/4-z,1/4-y
1/4-y,1/4-x,1/4-z
1/4-z,1/4-y,1/4-x
1/4-x,1/4+y,1/4+z
1/4-y,1/4+z,1/4+x
1/4-z,1/4+x,1/4+y
1/4-x,1/4+z,1/4+y
1/4-y,1/4+x,1/4+z
1/4-z,1/4+y,1/4+x
1/4+x,1/4-y,1/4+z
1/4+y,1/4-z,1/4+x
1/4+z,1/4-x,1/4+y
1/4+x,1/4-z,1/4+y
1/4+y,1/4-x,1/4+z
1/4+z,1/4-y,1/4+x
1/4+x,1/4+y,1/4-z
1/4+y,1/4+z,1/4-x
1/4+z,1/4+x,1/4-y
1/4+x,1/4+z,1/4-y
1/4+y,1/4+x,1/4-z
1/4+z,1/4+y,1/4-x
x,1/2+y,1/2+z
1/2+x,y,1/2+z
1/2+x,1/2+y,z
y,1/2+z,1/2+x
1/2+y,z,1/2+x
1/2+y,1/2+z,x
z,1/2+x,1/2+y
1/2+z,x,1/2+y
1/2+z,1/2+x,y
x,1/2+z,1/2+y
1/2+x,z,1/2+y
1/2+x,1/2+z,y
y,1/2+x,1/2+z
1/2+y,x,1/2+z
1/2+y,1/2+x,z
z,1/2+y,1/2+x
1/2+z,y,1/2+x
1/2+z,1/2+y,x
x,1/2-y,1/2-z
1/2+x,-y,1/2-z
1/2+x,1/2-y,-z
y,1/2-z,1/2-x
1/2+y,-z,1/2-x
1/2+y,1/2-z,-x
z,1/2-x,1/2-y
1/2+z,-x,1/2-y
1/2+z,1/2-x,-y
x,1/2-z,1/2-y
1/2+x,-z,1/2-y
1/2+x,1/2-z,-y
y,1/2-x,1/2-z
1/2+y,-x,1/2-z
1/2+y,1/2-x,-z
z,1/2-y,1/2-x
1/2+z,-y,1/2-x
1/2+z,1/2-y,-x
-x,1/2+y,1/2-z
1/2-x,y,1/2-z
1/2-x,1/2+y,-z
-y,1/2+z,1/2-x
1/2-y,z,1/2-x
1/2-y,1/2+z,-x
-z,1/2+x,1/2-y
1/2-z,x,1/2-y
1/2-z,1/2+x,-y
-x,1/2+z,1/2-y
1/2-x,z,1/2-y
1/2-x,1/2+z,-y
-y,1/2+x,1/2-z
1/2-y,x,1/2-z
1/2-y,1/2+x,-z
-z,1/2+y,1/2-x
1/2-z,y,1/2-x
1/2-z,1/2+y,-x
-x,1/2-y,1/2+z
1/2-x,-y,1/2+z
1/2-x,1/2-y,z
-y,1/2-z,1/2+x
1/2-y,-z,1/2+x
1/2-y,1/2-z,x
-z,1/2-x,1/2+y
1/2-z,-x,1/2+y
1/2-z,1/2-x,y
-x,1/2-z,1/2+y
1/2-x,-z,1/2+y
1/2-x,1/2-z,y
-y,1/2-x,1/2+z
1/2-y,-x,1/2+z
1/2-y,1/2-x,z
-z,1/2-y,1/2+x
1/2-z,-y,1/2+x
1/2-z,1/2-y,x
1/4-x,3/4-y,3/4-z
3/4-x,1/4-y,3/4-z
3/4-x,3/4-y,1/4-z
1/4-y,3/4-z,3/4-x
3/4-y,1/4-z,3/4-x
3/4-y,3/4-z,1/4-x
1/4-z,3/4-x,3/4-y
3/4-z,1/4-x,3/4-y
3/4-z,3/4-x,1/4-y
1/4-x,3/4-z,3/4-y
3/4-x,1/4-z,3/4-y
3/4-x,3/4-z,1/4-y
1/4-y,3/4-x,3/4-z
3/4-y,1/4-x,3/4-z
3/4-y,3/4-x,1/4-z
1/4-z,3/4-y,3/4-x
3/4-z,1/4-y,3/4-x
3/4-z,3/4-y,1/4-x
1/4-x,3/4+y,3/4+z
3/4-x,1/4+y,3/4+z
3/4-x,3/4+y,1/4+z
1/4-y,3/4+z,3/4+x
3/4-y,1/4+z,3/4+x
3/4-y,3/4+z,1/4+x
1/4-z,3/4+x,3/4+y
3/4-z,1/4+x,3/4+y
3/4-z,3/4+x,1/4+y
1/4-x,3/4+z,3/4+y
3/4-x,1/4+z,3/4+y
3/4-x,3/4+z,1/4+y
1/4-y,3/4+x,3/4+z
3/4-y,1/4+x,3/4+z
3/4-y,3/4+x,1/4+z
1/4-z,3/4+y,3/4+x
3/4-z,1/4+y,3/4+x
3/4-z,3/4+y,1/4+x
1/4+x,3/4-y,3/4+z
3/4+x,1/4-y,3/4+z
3/4+x,3/4-y,1/4+z
1/4+y,3/4-z,3/4+x
3/4+y,1/4-z,3/4+x
3/4+y,3/4-z,1/4+x
1/4+z,3/4-x,3/4+y
3/4+z,1/4-x,3/4+y
3/4+z,3/4-x,1/4+y
1/4+x,3/4-z,3/4+y
3/4+x,1/4-z,3/4+y
3/4+x,3/4-z,1/4+y
1/4+y,3/4-x,3/4+z
3/4+y,1/4-x,3/4+z
3/4+y,3/4-x,1/4+z
1/4+z,3/4-y,3/4+x
3/4+z,1/4-y,3/4+x
3/4+z,3/4-y,1/4+x
1/4+x,3/4+y,3/4-z
3/4+x,1/4+y,3/4-z
3/4+x,3/4+y,1/4-z
1/4+y,3/4+z,3/4-x
3/4+y,1/4+z,3/4-x
3/4+y,3/4+z,1/4-x
1/4+z,3/4+x,3/4-y
3/4+z,1/4+x,3/4-y
3/4+z,3/4+x,1/4-y
1/4+x,3/4+z,3/4-y
3/4+x,1/4+z,3/4-y
3/4+x,3/4+z,1/4-y
1/4+y,3/4+x,3/4-z
3/4+y,1/4+x,3/4-z
3/4+y,3/4+x,1/4-z
1/4+z,3/4+y,3/4-x
3/4+z,1/4+y,3/4-x
3/4+z,3/4+y,1/4-x
loop_
_atom_site_label
_atom_site_type_symbol
_atom_site_symmetry_multiplicity
_atom_site_Wyckoff_symbol
_atom_site_fract_x
_atom_site_fract_y
_atom_site_fract_z
_atom_site_occupancy
_atom_site_attached_hydrogens
_atom_site_calc_flag
Li1 Li1+ 8 a 0. 0. 0. 1. 0 d
Ti1 Ti4+ 16 c 0.125 0.125 0.125 0.875 0 d
O1 O2- 32 e 0.375 0.375 0.375 1. 0 d
loop_
_atom_type_symbol
_atom_type_oxidation_number
Li1+ 1.000
Ti4+ 4.000
O2- -2.000
