#------------------------------------------------------------------------------
#$Date: 2015-01-27 21:58:39 +0200 (Tue, 27 Jan 2015) $
#$Revision: 130149 $
#$URL: svn://www.crystallography.net/cod/cif/1/00/70/1007047.cif $
#------------------------------------------------------------------------------
#
# This file is available in the Crystallography Open Database (COD),
# http://www.crystallography.net/
#
# All data on this site have been placed in the public domain by the
# contributors.
#
data_1007047
loop_
_publ_author_name
'Durif, A'
'Maupin, G'
_publ_section_title              'Etude de deux germanates du type grenat'
_journal_coden_ASTM              ACCRA9
_journal_name_full               'Acta Crystallographica (1,1948-23,1967)'
_journal_page_first              440
_journal_page_last               441
_journal_paper_doi               10.1107/S0365110X61001418
_journal_volume                  14
_journal_year                    1961
_chemical_formula_structural     'Na2 Ca TI2 Ge3 O12'
_chemical_formula_sum            'Ca Ge3 Na2 O12 Ti2'
_chemical_name_systematic
;
Disodium calcium dititanium trigermanium oxide
;
_space_group_IT_number           230
_symmetry_cell_setting           cubic
_symmetry_Int_Tables_number      230
_symmetry_space_group_name_Hall  '-I 4bd 2c 3'
_symmetry_space_group_name_H-M   'I a -3 d'
_cell_angle_alpha                90
_cell_angle_beta                 90
_cell_angle_gamma                90
_cell_formula_units_Z            8
_cell_length_a                   12.359
_cell_length_b                   12.359
_cell_length_c                   12.359
_cell_volume                     1887.8
_cod_database_code               1007047
loop_
_symmetry_equiv_pos_as_xyz
x,y,z
1/2+x,1/2-y,-z
-x,1/2+y,1/2-z
1/2-x,-y,1/2+z
y,z,x
1/2-y,-z,1/2+x
1/2+y,1/2-z,-x
-y,1/2+z,1/2-x
z,x,y
-z,1/2+x,1/2-y
1/2-z,-x,1/2+y
1/2+z,1/2-x,-y
-x,-y,-z
1/2-x,1/2+y,z
x,1/2-y,1/2+z
1/2+x,y,1/2-z
-y,-z,-x
1/2+y,z,1/2-x
1/2-y,1/2+z,x
y,1/2-z,1/2+x
-z,-x,-y
z,1/2-x,1/2+y
1/2+z,x,1/2-y
1/2-z,1/2+x,y
1/4+x,1/4+z,1/4+y
3/4+x,1/4-z,3/4-y
1/4-x,3/4-z,3/4+y
3/4-x,3/4+z,1/4-y
1/4+y,1/4+x,1/4+z
3/4-y,3/4+x,1/4-z
3/4+y,1/4-x,3/4-z
1/4-y,3/4-x,3/4+z
1/4+z,1/4+y,1/4+x
1/4-z,3/4-y,3/4+x
3/4-z,3/4+y,1/4-x
3/4+z,1/4-y,3/4-x
1/4-x,1/4-z,1/4-y
3/4-x,1/4+z,3/4+y
1/4+x,3/4+z,3/4-y
3/4+x,3/4-z,1/4+y
1/4-y,1/4-x,1/4-z
3/4+y,3/4-x,1/4+z
3/4-y,1/4+x,3/4+z
1/4+y,3/4+x,3/4-z
1/4-z,1/4-y,1/4-x
1/4+z,3/4+y,3/4-x
3/4+z,3/4-y,1/4+x
3/4-z,1/4+y,3/4+x
1/2+x,1/2+y,1/2+z
x,-y,1/2-z
1/2-x,y,-z
-x,1/2-y,z
1/2+y,1/2+z,1/2+x
-y,1/2-z,x
y,-z,1/2-x
1/2-y,z,-x
1/2+z,1/2+x,1/2+y
1/2-z,x,-y
-z,1/2-x,y
z,-x,1/2-y
1/2-x,1/2-y,1/2-z
-x,y,1/2+z
1/2+x,-y,z
x,1/2+y,-z
1/2-y,1/2-z,1/2-x
y,1/2+z,-x
-y,z,1/2+x
1/2+y,-z,x
1/2-z,1/2-x,1/2-y
1/2+z,-x,y
z,1/2+x,-y
-z,x,1/2+y
3/4+x,3/4+z,3/4+y
1/4+x,3/4-z,1/4-y
3/4-x,1/4-z,1/4+y
1/4-x,1/4+z,3/4-y
3/4+y,3/4+x,3/4+z
1/4-y,1/4+x,3/4-z
1/4+y,3/4-x,1/4-z
3/4-y,1/4-x,1/4+z
3/4+z,3/4+y,3/4+x
3/4-z,1/4-y,1/4+x
1/4-z,1/4+y,3/4-x
1/4+z,3/4-y,1/4-x
3/4-x,3/4-z,3/4-y
1/4-x,3/4+z,1/4+y
3/4+x,1/4+z,1/4-y
1/4+x,1/4-z,3/4+y
3/4-y,3/4-x,3/4-z
1/4+y,1/4-x,3/4+z
1/4-y,3/4+x,1/4+z
3/4+y,1/4+x,1/4-z
3/4-z,3/4-y,3/4-x
3/4+z,1/4+y,1/4-x
1/4+z,1/4-y,3/4+x
1/4-z,3/4+y,1/4+x
loop_
_atom_site_label
_atom_site_type_symbol
_atom_site_symmetry_multiplicity
_atom_site_Wyckoff_symbol
_atom_site_fract_x
_atom_site_fract_y
_atom_site_fract_z
_atom_site_occupancy
_atom_site_attached_hydrogens
_atom_site_calc_flag
Ge1 Ge4+ 24 d 0.375 0. 0.25 1. 0 d
Ti1 Ti4+ 16 a 0. 0. 0. 1. 0 d
Na1 Na1+ 24 c 0.125 0. 0.25 0.667 0 d
Ca1 Ca2+ 24 c 0.125 0. 0.25 0.333 0 d
O1 O2- 96 h 0.035 0.05 0.645 1. 0 d
loop_
_atom_type_symbol
_atom_type_oxidation_number
Ge4+ 4.000
Ti4+ 4.000
Na1+ 1.000
Ca2+ 2.000
O2- -2.000
