#------------------------------------------------------------------------------
#$Date: 2016-02-14 16:26:36 +0200 (Sun, 14 Feb 2016) $
#$Revision: 176435 $
#$URL: svn://www.crystallography.net/cod/cif/1/00/82/1008249.cif $
#------------------------------------------------------------------------------
#
# This file is available in the Crystallography Open Database (COD),
# http://www.crystallography.net/
#
# All data on this site have been placed in the public domain by the
# contributors.
#
data_1008249
loop_
_publ_author_name
'Bouloux, J C'
'Soubeyroux, J L'
'Daoudi, A'
'le Flem, G'
_publ_section_title
;
Proprietes magnetiques de la phase Sr~1.50~ La~0.50~ Mn O~4~
;
_journal_coden_ASTM              MRBUAC
_journal_name_full               'Materials Research Bulletin'
_journal_page_first              855
_journal_page_last               860
_journal_paper_doi               10.1016/0025-5408(81)90160-4
_journal_volume                  16
_journal_year                    1981
_chemical_formula_structural     'SR1.50 LA0.50 MN O4'
_chemical_formula_sum            'La0.5 Mn O4 Sr1.5'
_chemical_name_systematic
;
STRONTIUM LANTHANUM MANGANESE OXIDE (1.5/0.5/1/4)
;
_space_group_IT_number           139
_symmetry_cell_setting           tetragonal
_symmetry_Int_Tables_number      139
_symmetry_space_group_name_Hall  '-I 4 2'
_symmetry_space_group_name_H-M   'I 4/m m m'
_cell_angle_alpha                90
_cell_angle_beta                 90
_cell_angle_gamma                90
_cell_formula_units_Z            2
_cell_length_a                   3.852(1)
_cell_length_b                   3.852(1)
_cell_length_c                   12.39(1)
_cell_volume                     183.8
_cod_original_formula_sum        'La.5 Mn O4 Sr1.5'
_cod_database_code               1008249
loop_
_symmetry_equiv_pos_as_xyz
x,y,z
-x,-y,z
-x,y,z
x,-y,z
-y,x,z
y,-x,z
y,x,z
-y,-x,z
-x,-y,-z
x,y,-z
x,-y,-z
-x,y,-z
y,-x,-z
-y,x,-z
-y,-x,-z
y,x,-z
1/2+x,1/2+y,1/2+z
1/2-x,1/2-y,1/2+z
1/2-x,1/2+y,1/2+z
1/2+x,1/2-y,1/2+z
1/2-y,1/2+x,1/2+z
1/2+y,1/2-x,1/2+z
1/2+y,1/2+x,1/2+z
1/2-y,1/2-x,1/2+z
1/2-x,1/2-y,1/2-z
1/2+x,1/2+y,1/2-z
1/2+x,1/2-y,1/2-z
1/2-x,1/2+y,1/2-z
1/2+y,1/2-x,1/2-z
1/2-y,1/2+x,1/2-z
1/2-y,1/2-x,1/2-z
1/2+y,1/2+x,1/2-z
loop_
_atom_site_label
_atom_site_type_symbol
_atom_site_symmetry_multiplicity
_atom_site_Wyckoff_symbol
_atom_site_fract_x
_atom_site_fract_y
_atom_site_fract_z
_atom_site_occupancy
_atom_site_attached_hydrogens
_atom_site_calc_flag
Sr1 Sr2+ 4 e 0. 0. 0.358 0.75 0 d
La1 La3+ 4 e 0. 0. 0.358 0.25 0 d
Mn1 Mn4+ 2 a 0. 0. 0. 0.5 0 d
Mn2 Mn3+ 2 a 0. 0. 0. 0.5 0 d
O1 O2- 4 e 0. 0. 0.16 1. 0 d
O2 O2- 4 c 0. 0.5 0. 1. 0 d
loop_
_atom_type_symbol
_atom_type_oxidation_number
Sr2+ 2.000
La3+ 3.000
Mn4+ 4.000
Mn3+ 3.000
O2- -2.000
