#------------------------------------------------------------------------------
#$Date: 2016-02-14 16:26:36 +0200 (Sun, 14 Feb 2016) $
#$Revision: 176435 $
#$URL: svn://www.crystallography.net/cod/cif/1/00/87/1008702.cif $
#------------------------------------------------------------------------------
#
# This file is available in the Crystallography Open Database (COD),
# http://www.crystallography.net/
#
# All data on this site have been placed in the public domain by the
# contributors.
#
data_1008702
loop_
_publ_author_name
'Haouzi, A'
'Muller, J'
'Joubert, J C'
_publ_section_title
;
Characterisations electrique et cristallographique des phases de type
pyrochlore Nd2-y Cuy Ru2 O7-y
;
_journal_coden_ASTM              MRBUAC
_journal_name_full               'Materials Research Bulletin'
_journal_page_first              1489
_journal_page_last               1493
_journal_paper_doi               10.1016/0025-5408(86)90089-9
_journal_volume                  21
_journal_year                    1986
_chemical_formula_structural     'Nd1.625 Cu.375 Ru2 O6.625'
_chemical_formula_sum            'Cu0.375 Nd1.625 O6.625 Ru2'
_chemical_name_systematic
;
Neodymium copper ruthenium oxide (1.63/.37/2/6.63)
;
_space_group_IT_number           227
_symmetry_cell_setting           cubic
_symmetry_space_group_name_Hall  '-F 4vw 2vw 3'
_symmetry_space_group_name_H-M   'F d -3 m :2'
_cell_angle_alpha                90
_cell_angle_beta                 90
_cell_angle_gamma                90
_cell_formula_units_Z            8
_cell_length_a                   10.2475
_cell_length_b                   10.2475
_cell_length_c                   10.2475
_cell_volume                     1076.1
_refine_ls_R_factor_all          0.0254
_cod_original_sg_symbol_H-M      'F d -3 m Z'
_cod_original_formula_sum        'Cu.375 Nd1.625 O6.625 Ru2'
_cod_database_code               1008702
loop_
_symmetry_equiv_pos_as_xyz
x,y,z
x,1/4-y,1/4-z
1/4-x,y,1/4-z
1/4-x,1/4-y,z
y,z,x
1/4-y,1/4-z,x
y,1/4-z,1/4-x
1/4-y,z,1/4-x
z,x,y
1/4-z,x,1/4-y
1/4-z,1/4-x,y
z,1/4-x,1/4-y
x,z,y
x,1/4-z,1/4-y
1/4-x,1/4-z,y
1/4-x,z,1/4-y
y,x,z
1/4-y,x,1/4-z
y,1/4-x,1/4-z
1/4-y,1/4-x,z
z,y,x
1/4-z,1/4-y,x
1/4-z,y,1/4-x
z,1/4-y,1/4-x
-x,-y,-z
-x,3/4+y,3/4+z
3/4+x,-y,3/4+z
3/4+x,3/4+y,-z
-y,-z,-x
3/4+y,3/4+z,-x
-y,3/4+z,3/4+x
3/4+y,-z,3/4+x
-z,-x,-y
3/4+z,-x,3/4+y
3/4+z,3/4+x,-y
-z,3/4+x,3/4+y
-x,-z,-y
-x,3/4+z,3/4+y
3/4+x,3/4+z,-y
3/4+x,-z,3/4+y
-y,-x,-z
3/4+y,-x,3/4+z
-y,3/4+x,3/4+z
3/4+y,3/4+x,-z
-z,-y,-x
3/4+z,3/4+y,-x
3/4+z,-y,3/4+x
-z,3/4+y,3/4+x
x,1/2+y,1/2+z
1/2+x,y,1/2+z
1/2+x,1/2+y,z
x,3/4-y,3/4-z
1/2+x,1/4-y,3/4-z
1/2+x,3/4-y,1/4-z
1/4-x,1/2+y,3/4-z
3/4-x,y,3/4-z
3/4-x,1/2+y,1/4-z
1/4-x,3/4-y,1/2+z
3/4-x,1/4-y,1/2+z
3/4-x,3/4-y,z
y,1/2+z,1/2+x
1/2+y,z,1/2+x
1/2+y,1/2+z,x
1/4-y,3/4-z,1/2+x
3/4-y,1/4-z,1/2+x
3/4-y,3/4-z,x
y,3/4-z,3/4-x
1/2+y,1/4-z,3/4-x
1/2+y,3/4-z,1/4-x
1/4-y,1/2+z,3/4-x
3/4-y,z,3/4-x
3/4-y,1/2+z,1/4-x
z,1/2+x,1/2+y
1/2+z,x,1/2+y
1/2+z,1/2+x,y
1/4-z,1/2+x,3/4-y
3/4-z,x,3/4-y
3/4-z,1/2+x,1/4-y
1/4-z,3/4-x,1/2+y
3/4-z,1/4-x,1/2+y
3/4-z,3/4-x,y
z,3/4-x,3/4-y
1/2+z,1/4-x,3/4-y
1/2+z,3/4-x,1/4-y
x,1/2+z,1/2+y
1/2+x,z,1/2+y
1/2+x,1/2+z,y
x,3/4-z,3/4-y
1/2+x,1/4-z,3/4-y
1/2+x,3/4-z,1/4-y
1/4-x,3/4-z,1/2+y
3/4-x,1/4-z,1/2+y
3/4-x,3/4-z,y
1/4-x,1/2+z,3/4-y
3/4-x,z,3/4-y
3/4-x,1/2+z,1/4-y
y,1/2+x,1/2+z
1/2+y,x,1/2+z
1/2+y,1/2+x,z
1/4-y,1/2+x,3/4-z
3/4-y,x,3/4-z
3/4-y,1/2+x,1/4-z
y,3/4-x,3/4-z
1/2+y,1/4-x,3/4-z
1/2+y,3/4-x,1/4-z
1/4-y,3/4-x,1/2+z
3/4-y,1/4-x,1/2+z
3/4-y,3/4-x,z
z,1/2+y,1/2+x
1/2+z,y,1/2+x
1/2+z,1/2+y,x
1/4-z,3/4-y,1/2+x
3/4-z,1/4-y,1/2+x
3/4-z,3/4-y,x
1/4-z,1/2+y,3/4-x
3/4-z,y,3/4-x
3/4-z,1/2+y,1/4-x
z,3/4-y,3/4-x
1/2+z,1/4-y,3/4-x
1/2+z,3/4-y,1/4-x
-x,1/2-y,1/2-z
1/2-x,-y,1/2-z
1/2-x,1/2-y,-z
-x,1/4+y,1/4+z
1/2-x,3/4+y,1/4+z
1/2-x,1/4+y,3/4+z
3/4+x,1/2-y,1/4+z
1/4+x,-y,1/4+z
1/4+x,1/2-y,3/4+z
3/4+x,1/4+y,1/2-z
1/4+x,3/4+y,1/2-z
1/4+x,1/4+y,-z
-y,1/2-z,1/2-x
1/2-y,-z,1/2-x
1/2-y,1/2-z,-x
3/4+y,1/4+z,1/2-x
1/4+y,3/4+z,1/2-x
1/4+y,1/4+z,-x
-y,1/4+z,1/4+x
1/2-y,3/4+z,1/4+x
1/2-y,1/4+z,3/4+x
3/4+y,1/2-z,1/4+x
1/4+y,-z,1/4+x
1/4+y,1/2-z,3/4+x
-z,1/2-x,1/2-y
1/2-z,-x,1/2-y
1/2-z,1/2-x,-y
3/4+z,1/2-x,1/4+y
1/4+z,-x,1/4+y
1/4+z,1/2-x,3/4+y
3/4+z,1/4+x,1/2-y
1/4+z,3/4+x,1/2-y
1/4+z,1/4+x,-y
-z,1/4+x,1/4+y
1/2-z,3/4+x,1/4+y
1/2-z,1/4+x,3/4+y
-x,1/2-z,1/2-y
1/2-x,-z,1/2-y
1/2-x,1/2-z,-y
-x,1/4+z,1/4+y
1/2-x,3/4+z,1/4+y
1/2-x,1/4+z,3/4+y
3/4+x,1/4+z,1/2-y
1/4+x,3/4+z,1/2-y
1/4+x,1/4+z,-y
3/4+x,1/2-z,1/4+y
1/4+x,-z,1/4+y
1/4+x,1/2-z,3/4+y
-y,1/2-x,1/2-z
1/2-y,-x,1/2-z
1/2-y,1/2-x,-z
3/4+y,1/2-x,1/4+z
1/4+y,-x,1/4+z
1/4+y,1/2-x,3/4+z
-y,1/4+x,1/4+z
1/2-y,3/4+x,1/4+z
1/2-y,1/4+x,3/4+z
3/4+y,1/4+x,1/2-z
1/4+y,3/4+x,1/2-z
1/4+y,1/4+x,-z
-z,1/2-y,1/2-x
1/2-z,-y,1/2-x
1/2-z,1/2-y,-x
3/4+z,1/4+y,1/2-x
1/4+z,3/4+y,1/2-x
1/4+z,1/4+y,-x
3/4+z,1/2-y,1/4+x
1/4+z,-y,1/4+x
1/4+z,1/2-y,3/4+x
-z,1/4+y,1/4+x
1/2-z,3/4+y,1/4+x
1/2-z,1/4+y,3/4+x
loop_
_atom_site_label
_atom_site_type_symbol
_atom_site_symmetry_multiplicity
_atom_site_Wyckoff_symbol
_atom_site_fract_x
_atom_site_fract_y
_atom_site_fract_z
_atom_site_occupancy
_atom_site_attached_hydrogens
_atom_site_calc_flag
Nd1 Nd3+ 16 d 0.5 0.5 0.5 0.81 0 d
Cu1 Cu2+ 16 d 0.5 0.5 0.5 0.19 0 d
Ru1 Ru4+ 16 c 0. 0. 0. 1. 0 d
O1 O2- 48 f 0.3290(6) 0.125 0.125 1. 0 d
O2 O2- 8 b 0.375 0.375 0.375 0.625 0 d
loop_
_atom_type_symbol
_atom_type_oxidation_number
Nd3+ 3.000
Cu2+ 2.000
Ru4+ 3.810
O2- -2.000
