#------------------------------------------------------------------------------
#$Date: 2015-01-27 21:58:39 +0200 (Tue, 27 Jan 2015) $
#$Revision: 130149 $
#$URL: svn://www.crystallography.net/cod/cif/1/00/80/1008050.cif $
#------------------------------------------------------------------------------
#
# This file is available in the Crystallography Open Database (COD),
# http://www.crystallography.net/
#
# All data on this site have been placed in the public domain by the
# contributors.
#
data_1008050
loop_
_publ_author_name
'Hodeau, J L'
'Marezio, M'
_publ_section_title
;
Structural aspects of the metal-insulator transition in (Ti~0.9975~
V~0.0025~)~4~ O~7~
;
_journal_coden_ASTM              JSSCBI
_journal_name_full               'Journal of Solid State Chemistry'
_journal_page_first              47
_journal_page_last               62
_journal_paper_doi               10.1016/0022-4596(79)90208-1
_journal_volume                  29
_journal_year                    1979
_chemical_formula_analytical     '(Ti0.9975 V0.0025)4 O7'
_chemical_formula_structural     'Ti4 O7'
_chemical_formula_sum            'O7 Ti4'
_chemical_name_systematic        Heptaoxotetratitanate
_space_group_IT_number           2
_symmetry_cell_setting           triclinic
_symmetry_Int_Tables_number      2
_symmetry_space_group_name_Hall  '-P 1 (-x,-1/2*y+1/2*z,1/2*y+1/2*z)'
_symmetry_space_group_name_H-M   'A -1'
_cell_angle_alpha                95.056(2)
_cell_angle_beta                 95.550(5)
_cell_angle_gamma                109.676(5)
_cell_formula_units_Z            4
_cell_length_a                   5.6235(3)
_cell_length_b                   7.1984(4)
_cell_length_c                   12.4018(5)
_cell_volume                     466.6
_refine_ls_R_factor_all          0.022
_cod_database_code               1008050
loop_
_symmetry_equiv_pos_as_xyz
x,y,z
-x,-y,-z
x,1/2+y,1/2+z
-x,1/2-y,1/2-z
loop_
_atom_site_label
_atom_site_type_symbol
_atom_site_symmetry_multiplicity
_atom_site_Wyckoff_symbol
_atom_site_fract_x
_atom_site_fract_y
_atom_site_fract_z
_atom_site_occupancy
_atom_site_attached_hydrogens
_atom_site_calc_flag
Ti1 Ti4+ 4 i 0.23627(6) 0.16307(5) 0.06822(3) 1. 0 d
Ti2 Ti4+ 4 i 0.21306(6) 0.67121(5) 0.06565(3) 1. 0 d
Ti3 Ti4+ 4 i 0.66984(6) 0.43872(5) 0.19383(3) 1. 0 d
Ti4 Ti4+ 4 i 0.70556(6) 0.94939(5) 0.20431(3) 1. 0 d
O1 O2- 4 i 0.1079(3) 0.8615(2) 0.0168(1) 1. 0 d
O2 O2- 4 i 0.5799(3) 0.7970(2) 0.0620(1) 1. 0 d
O3 O2- 4 i 0.8570(3) 0.4966(2) 0.0744(1) 1. 0 d
O4 O2- 4 i 0.3160(3) 0.4448(2) 0.1419(1) 1. 0 d
O5 O2- 4 i 0.5278(3) 0.1364(2) 0.1688(1) 1. 0 d
O6 O2- 4 i 0.0373(3) 0.0709(2) 0.1977(1) 1. 0 d
O7 O2- 4 i 0.2846(3) 0.7796(2) 0.2226(1) 1. 0 d
loop_
_atom_type_symbol
_atom_type_oxidation_number
Ti4+ 3.500
O2- -2.000
