#------------------------------------------------------------------------------
#$Date: 2015-01-27 21:58:39 +0200 (Tue, 27 Jan 2015) $
#$Revision: 130149 $
#$URL: svn://www.crystallography.net/cod/cif/1/00/86/1008649.cif $
#------------------------------------------------------------------------------
#
# This file is available in the Crystallography Open Database (COD),
# http://www.crystallography.net/
#
# All data on this site have been placed in the public domain by the
# contributors.
#
data_1008649
loop_
_publ_author_name
'Sullivan, J D'
'Bordet, P'
'Marezio, M'
'Takenaka, K'
'Uchida, S'
_publ_section_title
;
Electron-density Fourier maps of an untwinned YBa~2~Cu~3~O~6.877~
single crystal by x-ray-diffraction data
;
_journal_coden_ASTM              PRBMDO
_journal_issue                   14
_journal_name_full
;
Physical Review, Serie 3. B - Condensed Matter (18,1978-)
;
_journal_page_first              10638
_journal_page_last               10641
_journal_paper_doi               10.1103/PhysRevB.48.10638
_journal_volume                  48
_journal_year                    1993
_chemical_formula_structural     'Y Ba2 Cu3 O6.877'
_chemical_formula_sum            'Ba2 Cu3 O6.877 Y'
_chemical_name_systematic        'Yttrium barium copper oxide (1/2/3/6.9)'
_space_group_IT_number           47
_symmetry_cell_setting           orthorhombic
_symmetry_Int_Tables_number      47
_symmetry_space_group_name_Hall  '-P 2 2'
_symmetry_space_group_name_H-M   'P m m m'
_cell_angle_alpha                90
_cell_angle_beta                 90
_cell_angle_gamma                90
_cell_formula_units_Z            1
_cell_length_a                   3.8184(3)
_cell_length_b                   3.8857(2)
_cell_length_c                   11.701(1)
_cell_volume                     173.6
_refine_ls_R_factor_all          0.035
_cod_database_code               1008649
loop_
_symmetry_equiv_pos_as_xyz
x,y,z
-x,-y,z
x,-y,-z
-x,y,-z
-x,-y,-z
x,y,-z
-x,y,z
x,-y,z
loop_
_atom_site_aniso_label
_atom_site_aniso_U_11
_atom_site_aniso_U_12
_atom_site_aniso_U_13
_atom_site_aniso_U_22
_atom_site_aniso_U_23
_atom_site_aniso_U_33
Y1 0.00479(5) 0. 0. 0.00526(5) 0. 0.00610(6)
Ba1 0.00879(3) 0. 0. 0.00744(2) 0. 0.00889(3)
Cu1 0.00818(9) 0. 0. 0.00751(8) 0. 0.00554(8)
Cu2 0.00454(5) 0. 0. 0.00493(4) 0. 0.00929(7)
O1 0.0121(3) 0. 0. 0.0131(3) 0. 0.0082(3)
O2 0.0051(3) 0. 0. 0.0082(3) 0. 0.0125(4)
O3 0.0074(3) 0. 0. 0.0053(3) 0. 0.0101(3)
O4 0.027(1) 0. 0. 0.0105(6) 0. 0.0131(8)
loop_
_atom_site_label
_atom_site_type_symbol
_atom_site_symmetry_multiplicity
_atom_site_Wyckoff_symbol
_atom_site_fract_x
_atom_site_fract_y
_atom_site_fract_z
_atom_site_occupancy
_atom_site_attached_hydrogens
_atom_site_calc_flag
Y1 Y3+ 1 h 0.5 0.5 0.5 1. 0 d
Ba1 Ba2+ 2 t 0.5 0.5 0.185580(7) 1. 0 d
Cu1 Cu2+ 1 a 0. 0. 0. 1. 0 d
Cu2 Cu2+ 2 q 0. 0. 0.35588(1) 1. 0 d
O1 O2- 2 q 0. 0. 0.1580(1) 1. 0 d
O2 O2- 2 s 0.5 0. 0.37877(9) 1. 0 d
O3 O2- 2 r 0. 0.5 0.37792(9) 1. 0 d
O4 O2- 1 e 0. 0.5 0. 0.877(8) 0 d
loop_
_atom_type_symbol
_atom_type_oxidation_number
Y3+ 3.000
Ba2+ 2.000
Cu2+ 2.250
O2- -2.000
