#------------------------------------------------------------------------------
#$Date: 2015-01-27 21:58:39 +0200 (Tue, 27 Jan 2015) $
#$Revision: 130149 $
#$URL: svn://www.crystallography.net/cod/cif/1/00/86/1008660.cif $
#------------------------------------------------------------------------------
#
# This file is available in the Crystallography Open Database (COD),
# http://www.crystallography.net/
#
# All data on this site have been placed in the public domain by the
# contributors.
#
data_1008660
loop_
_publ_author_name
'Huang, Q'
'Soubeyroux, J L'
'Chmaissem, O'
'Natali Sora, I'
'Santoro, A'
'Cava, R J'
'Krajewski, J J'
'Peck, W F jr'
_publ_section_title
;
Neutron powder diffraction study of the crystal structures of
Sr~2~RuO~4~ and Sr~2~IrO~4~ at room temperature and at 10K
;
_journal_coden_ASTM              JSSCBI
_journal_name_full               'Journal of Solid State Chemistry'
_journal_page_first              355
_journal_page_last               361
_journal_paper_doi               10.1006/jssc.1994.1316
_journal_volume                  112
_journal_year                    1994
_chemical_formula_structural     'Sr2 Ru O4'
_chemical_formula_sum            'O4 Ru Sr2'
_chemical_name_systematic        'Distrontium ruthenium(IV) oxide'
_space_group_IT_number           139
_symmetry_cell_setting           tetragonal
_symmetry_Int_Tables_number      139
_symmetry_space_group_name_Hall  '-I 4 2'
_symmetry_space_group_name_H-M   'I 4/m m m'
_cell_angle_alpha                90
_cell_angle_beta                 90
_cell_angle_gamma                90
_cell_formula_units_Z            2
_cell_length_a                   3.86358(7)
_cell_length_b                   3.86358(7)
_cell_length_c                   12.7155(4)
_cell_volume                     189.8
_refine_ls_R_factor_all          0.089
_cod_database_code               1008660
loop_
_symmetry_equiv_pos_as_xyz
x,y,z
-x,-y,z
-x,y,z
x,-y,z
-y,x,z
y,-x,z
y,x,z
-y,-x,z
-x,-y,-z
x,y,-z
x,-y,-z
-x,y,-z
y,-x,-z
-y,x,-z
-y,-x,-z
y,x,-z
1/2+x,1/2+y,1/2+z
1/2-x,1/2-y,1/2+z
1/2-x,1/2+y,1/2+z
1/2+x,1/2-y,1/2+z
1/2-y,1/2+x,1/2+z
1/2+y,1/2-x,1/2+z
1/2+y,1/2+x,1/2+z
1/2-y,1/2-x,1/2+z
1/2-x,1/2-y,1/2-z
1/2+x,1/2+y,1/2-z
1/2+x,1/2-y,1/2-z
1/2-x,1/2+y,1/2-z
1/2+y,1/2-x,1/2-z
1/2-y,1/2+x,1/2-z
1/2-y,1/2-x,1/2-z
1/2+y,1/2+x,1/2-z
loop_
_atom_site_label
_atom_site_type_symbol
_atom_site_symmetry_multiplicity
_atom_site_Wyckoff_symbol
_atom_site_fract_x
_atom_site_fract_y
_atom_site_fract_z
_atom_site_occupancy
_atom_site_attached_hydrogens
_atom_site_calc_flag
Sr1 Sr2+ 4 e 0. 0. 0.3526(2) 1. 0 d
Ru1 Ru4+ 2 a 0. 0. 0. 1. 0 d
O1 O2- 4 c 0. 0.5 0. 1. 0 d
O2 O2- 4 e 0. 0. 0.1625(2) 1. 0 d
loop_
_atom_type_symbol
_atom_type_oxidation_number
Sr2+ 2.000
Ru4+ 4.000
O2- -2.000
