#------------------------------------------------------------------------------
#$Date: 2016-02-18 17:37:37 +0200 (Thu, 18 Feb 2016) $
#$Revision: 176729 $
#$URL: svn://www.crystallography.net/cod/cif/1/01/06/1010653.cif $
#------------------------------------------------------------------------------
#
# This file is available in the Crystallography Open Database (COD),
# http://www.crystallography.net/
#
# All data on this site have been placed in the public domain by the
# contributors.
#
data_1010653
loop_
_publ_author_name
'Zintl, E'
'Morawietz, W'
_publ_section_title              'Doppeloxyde mit Steinsalzstruktur'
_journal_coden_ASTM              ZAACAB
_journal_name_full
;
Zeitschrift fuer Anorganische und Allgemeine Chemie
;
_journal_page_first              26
_journal_page_last               31
_journal_paper_doi               10.1002/zaac.19402450106
_journal_volume                  245
_journal_year                    1940
_chemical_formula_structural     '(Na2 Pr O3)2.67'
_chemical_formula_sum            'Na5.34 O8.01 Pr2.67'
_chemical_name_systematic        'Disodium praseodymium(IV) oxide'
_space_group_IT_number           227
_symmetry_cell_setting           cubic
_symmetry_space_group_name_Hall  'F 4d 2 3 -1d'
_symmetry_space_group_name_H-M   'F d -3 m :1'
_cell_angle_alpha                90
_cell_angle_beta                 90
_cell_angle_gamma                90
_cell_formula_units_Z            1
_cell_length_a                   4.84
_cell_length_b                   4.84
_cell_length_c                   4.84
_cell_volume                     113.4
_cod_original_sg_symbol_H-M      'F d -3 m S'
_cod_database_code               1010653
loop_
_symmetry_equiv_pos_as_xyz
x,y,z
y,z,x
z,x,y
x,z,y
y,x,z
z,y,x
x,-y,-z
y,-z,-x
z,-x,-y
x,-z,-y
y,-x,-z
z,-y,-x
-x,y,-z
-y,z,-x
-z,x,-y
-x,z,-y
-y,x,-z
-z,y,-x
-x,-y,z
-y,-z,x
-z,-x,y
-x,-z,y
-y,-x,z
-z,-y,x
1/4-x,1/4-y,1/4-z
1/4-y,1/4-z,1/4-x
1/4-z,1/4-x,1/4-y
1/4-x,1/4-z,1/4-y
1/4-y,1/4-x,1/4-z
1/4-z,1/4-y,1/4-x
1/4-x,1/4+y,1/4+z
1/4-y,1/4+z,1/4+x
1/4-z,1/4+x,1/4+y
1/4-x,1/4+z,1/4+y
1/4-y,1/4+x,1/4+z
1/4-z,1/4+y,1/4+x
1/4+x,1/4-y,1/4+z
1/4+y,1/4-z,1/4+x
1/4+z,1/4-x,1/4+y
1/4+x,1/4-z,1/4+y
1/4+y,1/4-x,1/4+z
1/4+z,1/4-y,1/4+x
1/4+x,1/4+y,1/4-z
1/4+y,1/4+z,1/4-x
1/4+z,1/4+x,1/4-y
1/4+x,1/4+z,1/4-y
1/4+y,1/4+x,1/4-z
1/4+z,1/4+y,1/4-x
x,1/2+y,1/2+z
1/2+x,y,1/2+z
1/2+x,1/2+y,z
y,1/2+z,1/2+x
1/2+y,z,1/2+x
1/2+y,1/2+z,x
z,1/2+x,1/2+y
1/2+z,x,1/2+y
1/2+z,1/2+x,y
x,1/2+z,1/2+y
1/2+x,z,1/2+y
1/2+x,1/2+z,y
y,1/2+x,1/2+z
1/2+y,x,1/2+z
1/2+y,1/2+x,z
z,1/2+y,1/2+x
1/2+z,y,1/2+x
1/2+z,1/2+y,x
x,1/2-y,1/2-z
1/2+x,-y,1/2-z
1/2+x,1/2-y,-z
y,1/2-z,1/2-x
1/2+y,-z,1/2-x
1/2+y,1/2-z,-x
z,1/2-x,1/2-y
1/2+z,-x,1/2-y
1/2+z,1/2-x,-y
x,1/2-z,1/2-y
1/2+x,-z,1/2-y
1/2+x,1/2-z,-y
y,1/2-x,1/2-z
1/2+y,-x,1/2-z
1/2+y,1/2-x,-z
z,1/2-y,1/2-x
1/2+z,-y,1/2-x
1/2+z,1/2-y,-x
-x,1/2+y,1/2-z
1/2-x,y,1/2-z
1/2-x,1/2+y,-z
-y,1/2+z,1/2-x
1/2-y,z,1/2-x
1/2-y,1/2+z,-x
-z,1/2+x,1/2-y
1/2-z,x,1/2-y
1/2-z,1/2+x,-y
-x,1/2+z,1/2-y
1/2-x,z,1/2-y
1/2-x,1/2+z,-y
-y,1/2+x,1/2-z
1/2-y,x,1/2-z
1/2-y,1/2+x,-z
-z,1/2+y,1/2-x
1/2-z,y,1/2-x
1/2-z,1/2+y,-x
-x,1/2-y,1/2+z
1/2-x,-y,1/2+z
1/2-x,1/2-y,z
-y,1/2-z,1/2+x
1/2-y,-z,1/2+x
1/2-y,1/2-z,x
-z,1/2-x,1/2+y
1/2-z,-x,1/2+y
1/2-z,1/2-x,y
-x,1/2-z,1/2+y
1/2-x,-z,1/2+y
1/2-x,1/2-z,y
-y,1/2-x,1/2+z
1/2-y,-x,1/2+z
1/2-y,1/2-x,z
-z,1/2-y,1/2+x
1/2-z,-y,1/2+x
1/2-z,1/2-y,x
1/4-x,3/4-y,3/4-z
3/4-x,1/4-y,3/4-z
3/4-x,3/4-y,1/4-z
1/4-y,3/4-z,3/4-x
3/4-y,1/4-z,3/4-x
3/4-y,3/4-z,1/4-x
1/4-z,3/4-x,3/4-y
3/4-z,1/4-x,3/4-y
3/4-z,3/4-x,1/4-y
1/4-x,3/4-z,3/4-y
3/4-x,1/4-z,3/4-y
3/4-x,3/4-z,1/4-y
1/4-y,3/4-x,3/4-z
3/4-y,1/4-x,3/4-z
3/4-y,3/4-x,1/4-z
1/4-z,3/4-y,3/4-x
3/4-z,1/4-y,3/4-x
3/4-z,3/4-y,1/4-x
1/4-x,3/4+y,3/4+z
3/4-x,1/4+y,3/4+z
3/4-x,3/4+y,1/4+z
1/4-y,3/4+z,3/4+x
3/4-y,1/4+z,3/4+x
3/4-y,3/4+z,1/4+x
1/4-z,3/4+x,3/4+y
3/4-z,1/4+x,3/4+y
3/4-z,3/4+x,1/4+y
1/4-x,3/4+z,3/4+y
3/4-x,1/4+z,3/4+y
3/4-x,3/4+z,1/4+y
1/4-y,3/4+x,3/4+z
3/4-y,1/4+x,3/4+z
3/4-y,3/4+x,1/4+z
1/4-z,3/4+y,3/4+x
3/4-z,1/4+y,3/4+x
3/4-z,3/4+y,1/4+x
1/4+x,3/4-y,3/4+z
3/4+x,1/4-y,3/4+z
3/4+x,3/4-y,1/4+z
1/4+y,3/4-z,3/4+x
3/4+y,1/4-z,3/4+x
3/4+y,3/4-z,1/4+x
1/4+z,3/4-x,3/4+y
3/4+z,1/4-x,3/4+y
3/4+z,3/4-x,1/4+y
1/4+x,3/4-z,3/4+y
3/4+x,1/4-z,3/4+y
3/4+x,3/4-z,1/4+y
1/4+y,3/4-x,3/4+z
3/4+y,1/4-x,3/4+z
3/4+y,3/4-x,1/4+z
1/4+z,3/4-y,3/4+x
3/4+z,1/4-y,3/4+x
3/4+z,3/4-y,1/4+x
1/4+x,3/4+y,3/4-z
3/4+x,1/4+y,3/4-z
3/4+x,3/4+y,1/4-z
1/4+y,3/4+z,3/4-x
3/4+y,1/4+z,3/4-x
3/4+y,3/4+z,1/4-x
1/4+z,3/4+x,3/4-y
3/4+z,1/4+x,3/4-y
3/4+z,3/4+x,1/4-y
1/4+x,3/4+z,3/4-y
3/4+x,1/4+z,3/4-y
3/4+x,3/4+z,1/4-y
1/4+y,3/4+x,3/4-z
3/4+y,1/4+x,3/4-z
3/4+y,3/4+x,1/4-z
1/4+z,3/4+y,3/4-x
3/4+z,1/4+y,3/4-x
3/4+z,3/4+y,1/4-x
loop_
_atom_site_label
_atom_site_type_symbol
_atom_site_symmetry_multiplicity
_atom_site_Wyckoff_symbol
_atom_site_fract_x
_atom_site_fract_y
_atom_site_fract_z
_atom_site_occupancy
_atom_site_attached_hydrogens
_atom_site_calc_flag
Na1 Na1+ 8 a 0. 0. 0. 0.67 0 d
Pr1 Pr4+ 8 a 0. 0. 0. 0.33 0 d
O1 O2- 8 l 0.5 0.5 0.5 1. 0 d
loop_
_atom_type_symbol
_atom_type_oxidation_number
Na1+ 1.000
Pr4+ 4.000
O2- -2.000
