#------------------------------------------------------------------------------
#$Date: 2017-10-13 02:32:00 +0300 (Fri, 13 Oct 2017) $
#$Revision: 201954 $
#$URL: file:///home/coder/svn-repositories/cod/cif/1/01/12/1011258.cif $
#------------------------------------------------------------------------------
#
# This file is available in the Crystallography Open Database (COD),
# http://www.crystallography.net/
#
# All data on this site have been placed in the public domain by the
# contributors.
#
data_1011258
loop_
_publ_author_name
'Aminoff, G'
_publ_section_title
;
Ueber Lauephotogramme und Struktur von Zinkit.
;
_journal_coden_ASTM              ZEKGAX
_journal_name_full
;
Zeitschrift fuer Kristallographie, Kristallgeometrie, Kristallphysik,
Kristallchemie (-144,1977)
;
_journal_page_first              495
_journal_page_last               505
_journal_volume                  56
_journal_year                    1921
_chemical_compound_source        synthetic
_chemical_formula_structural     'Zn O'
_chemical_formula_sum            'O Zn'
_chemical_name_mineral           Zincite
_chemical_name_systematic        'Zinc oxide'
_space_group_IT_number           186
_symmetry_cell_setting           hexagonal
_symmetry_Int_Tables_number      186
_symmetry_space_group_name_Hall  'P 6c -2c'
_symmetry_space_group_name_H-M   'P 63 m c'
_cell_angle_alpha                90
_cell_angle_beta                 90
_cell_angle_gamma                120
_cell_formula_units_Z            2
_cell_length_a                   3.22
_cell_length_b                   3.22
_cell_length_c                   5.2
_cell_volume                     46.7
_exptl_crystal_density_meas      5.7
_cod_database_code               1011258
loop_
_symmetry_equiv_pos_as_xyz
x,y,z
-y,x-y,z
y-x,-x,z
-y,-x,z
y-x,y,z
x,x-y,z
-x,-y,1/2+z
y,y-x,1/2+z
x-y,x,1/2+z
y,x,1/2+z
x-y,-y,1/2+z
-x,y-x,1/2+z
loop_
_atom_site_label
_atom_site_type_symbol
_atom_site_symmetry_multiplicity
_atom_site_Wyckoff_symbol
_atom_site_fract_x
_atom_site_fract_y
_atom_site_fract_z
_atom_site_occupancy
_atom_site_attached_hydrogens
_atom_site_calc_flag
Zn1 Zn2+ 2 b 0.3333 0.6667 0. 1. 0 d
O1 O2- 2 b 0.3333 0.6667 0.375 1. 0 d
loop_
_atom_type_symbol
_atom_type_oxidation_number
Zn2+ 2.000
O2- -2.000
loop_
_cod_related_entry_id
_cod_related_entry_database
_cod_related_entry_code
1 ChemSpider 2277402
