#------------------------------------------------------------------------------
#$Date: 2015-01-27 21:58:39 +0200 (Tue, 27 Jan 2015) $
#$Revision: 130149 $
#$URL: svn://www.crystallography.net/cod/cif/1/10/10/1101066.cif $
#------------------------------------------------------------------------------
#
# This file is available in the Crystallography Open Database (COD),
# http://www.crystallography.net/
#
# All data on this site have been placed in the public domain by the
# contributors.
#
data_1101066
loop_
_publ_author_name
'Kruger, Hannes'
'Kahlenberg, Volker'
_journal_name_full               "'Unpublished'"
_chemical_formula_sum            'Ca2 Fe2 O5'
_chemical_formula_weight         271.8
_space_group_IT_number           62
_symmetry_cell_setting           orthorhombic
_symmetry_space_group_name_Hall  '-P 2ac 2n'
_symmetry_space_group_name_H-M   'P n m a'
_cell_angle_alpha                90
_cell_angle_beta                 90
_cell_angle_gamma                90
_cell_formula_units_Z            4
_cell_length_a                   5.4421(8)
_cell_length_b                   14.785(2)
_cell_length_c                   5.6112(8)
_cell_measurement_temperature    300(2)
_cell_volume                     451.50(12)
_diffrn_ambient_temperature      300(2)
_diffrn_source_current           40
_diffrn_source_power             2.00
_diffrn_source_voltage           50
_exptl_crystal_density_diffrn    3.9980
_refine_ls_goodness_of_fit_gt    2.90
_cod_database_code               1101066
loop_
_symmetry_equiv_pos_site_id
_symmetry_equiv_pos_as_xyz
1 x,y,z
2 1/2+x,y,1/2-z
3 1/2-x,1/2+y,1/2+z
4 -x,1/2+y,-z
5 -x,-y,-z
6 1/2-x,-y,1/2+z
7 1/2+x,1/2-y,1/2-z
8 x,1/2-y,z
loop_
_atom_site_label
_atom_site_type_symbol
_atom_site_fract_x
_atom_site_fract_y
_atom_site_fract_z
_atom_site_adp_type
_atom_site_U_iso_or_equiv
_atom_site_symmetry_multiplicity
_atom_site_occupancy
_atom_site_calc_flag
_atom_site_refinement_flags
_atom_site_disorder_assembly
_atom_site_disorder_group
Fe1 Fe 0 0 0.5 Uani 0.0046(2) 4 1 d . . .
Fe2 Fe 0.94570(13) 0.25 0.56629(14) Uani 0.0040(2) 4 1 d . . .
Ca1 Ca 0.98071(14) 0.10787(5) 0.02315(14) Uani 0.0074(2) 8 1 d . . .
O1 O 0.7373(4) 0.01583(18) 0.7368(5) Uani 0.0065(7) 8 1 d . . .
O2 O 0.0239(5) 0.1407(2) 0.4269(6) Uani 0.0089(7) 8 1 d . . .
O3 O 0.5984(6) 0.25 0.6263(7) Uani 0.0064(10) 4 1 d . . .
loop_
_atom_site_aniso_label
_atom_site_aniso_type_symbol
_atom_site_aniso_U_11
_atom_site_aniso_U_22
_atom_site_aniso_U_33
_atom_site_aniso_U_12
_atom_site_aniso_U_13
_atom_site_aniso_U_23
Fe1 Fe 0.0029(3) 0.0082(4) 0.0027(4) 0.0004(2) 0.0000(2) -0.0001(3)
Fe2 Fe 0.0044(3) 0.0031(4) 0.0044(4) 0 0.0003(3) 0
Ca1 Ca 0.0101(4) 0.0056(3) 0.0065(4) -0.0011(2) 0.0015(2) 0.0000(3)
O1 O 0.0044(11) 0.0092(12) 0.0058(13) -0.0008(9) 0.0016(10) -0.0006(11)
O2 O 0.0119(11) 0.0070(13) 0.0079(13) 0.0012(9) 0.0004(10) -0.0006(11)
O3 O 0.0045(15) 0.0087(19) 0.0059(18) 0 0.0005(12) 0
loop_
_geom_bond_atom_site_label_1
_geom_bond_atom_site_label_2
_geom_bond_site_symmetry_1
_geom_bond_site_symmetry_2
_geom_bond_distance
_geom_bond_publ_flag
Fe1 O1 . 1_455 1.965(3) yes
Fe1 O1 . 5_656 1.965(3) yes
Fe1 O1 . 2_456 1.976(3) yes
Fe1 O1 . 6_554 1.976(3) yes
Fe1 O2 . . 2.124(3) yes
Fe1 O2 . 5_556 2.124(3) yes
Fe2 O2 . 1_655 1.845(3) yes
Fe2 O2 . 8_655 1.845(3) yes
Fe2 O3 . . 1.920(3) yes
Fe2 O3 . 2_556 1.915(4) yes
Ca1 O1 . 1_554 2.488(3) yes
Ca1 O1 . 5_756 2.741(3) yes
Ca1 O1 . 2_555 2.435(3) yes
Ca1 O1 . 6_654 2.488(3) yes
Ca1 O2 . 1_655 2.329(3) yes
Ca1 O2 . 2_555 2.549(3) yes
Ca1 O3 . 2_555 2.3514(18) yes
