#------------------------------------------------------------------------------
#$Date: 2016-02-18 17:37:37 +0200 (Thu, 18 Feb 2016) $
#$Revision: 176729 $
#$URL: svn://www.crystallography.net/cod/cif/1/50/14/1501470.cif $
#------------------------------------------------------------------------------
#
# This file is available in the Crystallography Open Database (COD),
# http://www.crystallography.net/
#
# All data on this site have been placed in the public domain by the
# contributors.
#
data_1501470
loop_
_publ_author_name
'Kr\"uger, Hannes'
'Kahlenberg, Volker'
'Kaindl, R.'
_publ_section_title
;
 Li2Si3O7: Crystal structure and Raman Spectroscopy
;
_journal_name_full               'Journal of Solid State Chemistry'
_journal_page_first              936
_journal_page_last               942
_journal_volume                  180
_journal_year                    2007
_chemical_formula_sum            'Li2 O7 Si3'
_chemical_formula_weight         210.13
_chemical_name_systematic        ' ?'
_space_group_IT_number           57
_symmetry_cell_setting           orthorhombic
_symmetry_Int_Tables_number      57
_symmetry_space_group_name_Hall  '-P 2ac 2a'
_symmetry_space_group_name_H-M   'P m c a'
_cell_angle_alpha                90.00
_cell_angle_beta                 90.00
_cell_angle_gamma                90.00
_cell_formula_units_Z            4
_cell_length_a                   19.648(3)
_cell_length_b                   5.9969(8)
_cell_length_c                   4.8691(6)
_cell_measurement_reflns_used    3544
_cell_measurement_temperature    298
_cell_measurement_theta_max      29.48
_cell_measurement_theta_min      2.07
_cell_volume                     573.71(14)
_computing_cell_refinement       'STOE X-AREA'
_computing_data_collection       'STOE X-AREA'
_computing_data_reduction        'STOE X-RED'
_computing_molecular_graphics    'DRAWxtl5.1 (Finger, Kroeker and Toby, 2005)'
_computing_publication_material  '(Jana2000; Petricek and Dusek, 2000)'
_computing_structure_refinement  '(Jana2000; Petricek and Dusek, 2000)'
_computing_structure_solution    SIR-97
_diffrn_ambient_temperature      298
_diffrn_detector                 'image plate (34 cm diameter)'
_diffrn_detector_area_resol_mean 6.67
_diffrn_detector_type            STOE
_diffrn_measured_fraction_theta_full 1.00
_diffrn_measurement_details      ' 120 frames, detector distance = 100 mm'
_diffrn_measurement_device       '2-circle goniometer'
_diffrn_measurement_device_type  'STOE IPDS 2'
_diffrn_measurement_method       'rotation method'
_diffrn_radiation_collimation    '0.5 mm diameter, multiple pinhole'
_diffrn_radiation_monochromator  'plane graphite'
_diffrn_radiation_polarisn_norm  0
_diffrn_radiation_type           'Mo K\a'
_diffrn_radiation_wavelength     0.71073
_diffrn_reflns_av_R_equivalents  0.0451
_diffrn_reflns_av_sigmaI/netI    0.0123
_diffrn_reflns_limit_h_max       26
_diffrn_reflns_limit_h_min       -26
_diffrn_reflns_limit_k_max       8
_diffrn_reflns_limit_k_min       -8
_diffrn_reflns_limit_l_max       6
_diffrn_reflns_limit_l_min       -6
_diffrn_reflns_number            4610
_diffrn_reflns_theta_full        29.23
_diffrn_reflns_theta_max         29.23
_diffrn_reflns_theta_min         2.07
_diffrn_source
'sealed X-ray tube, 12 x 0.4 mm long-fine focus'
_diffrn_source_current           40
_diffrn_source_power             2.00
_diffrn_source_voltage           50
_exptl_absorpt_coefficient_mu    0.81
_exptl_absorpt_correction_T_max  0.9833
_exptl_absorpt_correction_T_min  0.8754
_exptl_absorpt_correction_type   integration
_exptl_crystal_colour            colourless
_exptl_crystal_density_diffrn    2.435
_exptl_crystal_description       plate
_exptl_crystal_F_000             416
_exptl_crystal_size_max          0.26
_exptl_crystal_size_mid          0.09
_exptl_crystal_size_min          0.02
_refine_diff_density_max         0.53
_refine_diff_density_min         -0.50
_refine_ls_extinction_coef       0.04(2)
_refine_ls_extinction_method
'B-C type 1 Gaussian isotropic (Becker & Coppens, 1974)'
_refine_ls_goodness_of_fit_gt    2.46
_refine_ls_goodness_of_fit_ref   2.34
_refine_ls_number_parameters     59
_refine_ls_number_reflns         803
_refine_ls_R_factor_all          0.0505
_refine_ls_R_factor_gt           0.0350
_refine_ls_shift/su_max          0.0002
_refine_ls_shift/su_mean         0.0000
_refine_ls_structure_factor_coef F
_refine_ls_weighting_details     w=1/(\s^2^(F)+0.0001F^2^)
_refine_ls_weighting_scheme      sigma
_refine_ls_wR_factor_gt          0.0374
_refine_ls_wR_factor_ref         0.0399
_reflns_number_gt                649
_reflns_number_total             803
_reflns_threshold_expression     I>3\s(I)
_cod_data_source_file            Li2Si3O7.cif
_cod_data_source_block           li2si3o7
_cod_original_cell_volume        573.70(14)
_cod_database_code               1501470
loop_
_symmetry_equiv_pos_site_id
_symmetry_equiv_pos_as_xyz
1 x,y,z
2 1/2-x,y,z
3 x,-y,1/2+z
4 1/2-x,-y,1/2+z
5 -x,-y,-z
6 1/2+x,-y,-z
7 -x,y,1/2-z
8 1/2+x,y,1/2-z
loop_
_atom_site_label
_atom_site_type_symbol
_atom_site_fract_x
_atom_site_fract_y
_atom_site_fract_z
_atom_site_adp_type
_atom_site_U_iso_or_equiv
_atom_site_symmetry_multiplicity
_atom_site_occupancy
_atom_site_calc_flag
_atom_site_refinement_flags
_atom_site_disorder_assembly
_atom_site_disorder_group
Si1 Si 0.25 0.34929(15) 0.57981(18) Uani 0.0123(2) 4 1 d . . .
Si2 Si 0.10440(3) 0.14615(10) 0.55364(12) Uani 0.01098(16) 8 1 d . . .
O1 O 0.05547(8) 0.3389(3) 0.4566(3) Uani 0.0156(4) 8 1 d . . .
O2 O 0.18419(9) 0.2016(3) 0.5144(4) Uani 0.0194(5) 8 1 d . . .
O3 O 0.25 0.4260(4) 0.8970(5) Uani 0.0206(7) 4 1 d . . .
O4 O 0.09068(8) 0.0865(3) 0.8801(3) Uani 0.0141(4) 8 1 d . . .
Li1 Li 0.0440(2) 0.3535(7) 0.0567(9) Uani 0.0190(11) 8 1 d . . .
loop_
_atom_site_aniso_label
_atom_site_aniso_type_symbol
_atom_site_aniso_U_11
_atom_site_aniso_U_22
_atom_site_aniso_U_33
_atom_site_aniso_U_12
_atom_site_aniso_U_13
_atom_site_aniso_U_23
Si1 Si 0.0135(4) 0.0119(4) 0.0115(4) 0 0 -0.0001(3)
Si2 Si 0.0124(3) 0.0101(3) 0.0104(3) -0.0006(2) -0.0002(2) 0.0000(2)
O1 O 0.0190(7) 0.0128(7) 0.0151(7) 0.0020(6) -0.0014(6) 0.0013(7)
O2 O 0.0155(7) 0.0226(9) 0.0201(9) -0.0053(7) 0.0006(6) -0.0024(7)
O3 O 0.0334(13) 0.0161(12) 0.0123(11) 0 0 -0.0001(10)
O4 O 0.0195(7) 0.0119(7) 0.0108(7) 0.0024(6) 0.0011(5) -0.0001(6)
Li1 Li 0.0246(19) 0.0156(18) 0.0169(18) 0.0018(15) -0.0007(15) 0.0011(17)
loop_
_atom_type_symbol
_atom_type_scat_dispersion_real
_atom_type_scat_dispersion_imag
_atom_type_scat_source
Li 0.000 0.000 'International Tables Vol C Tables  4.2.6.8 and 6.1.1.1'
Si 0.082 0.070 'International Tables Vol C Tables  4.2.6.8 and 6.1.1.1'
O 0.011 0.006 'International Tables Vol C Tables  4.2.6.8 and 6.1.1.1'
loop_
_exptl_crystal_face_index_h
_exptl_crystal_face_index_k
_exptl_crystal_face_index_l
_exptl_crystal_face_perp_dist
-1 0 0 0.0150
1 0 0 0.0050
5 6 0 0.0330
3 0 -5 0.1120
2 5 3 0.1020
-3 -4 0 0.0540
-3 0 5 0.1440
-5 -4 3 0.1230
loop_
_geom_angle_atom_site_label_1
_geom_angle_atom_site_label_2
_geom_angle_atom_site_label_3
_geom_angle_site_symmetry_1
_geom_angle_site_symmetry_2
_geom_angle_site_symmetry_3
_geom_angle
_geom_angle_publ_flag
O2 Si1 O2 . . 2_555 107.88(10) yes
O2 Si1 O3 . . . 110.43(9) yes
O2 Si1 O3 . . 3_564 110.63(9) yes
O2 Si1 O2 2_555 . . 107.88(10) yes
O2 Si1 O3 2_555 . . 110.43(9) yes
O2 Si1 O3 2_555 . 3_564 110.63(9) yes
O3 Si1 O3 . . 3_564 106.86(14) yes
O3 Si1 O3 3_564 . . 106.86(14) yes
O1 Si2 O2 . . . 113.96(10) yes
O1 Si2 O4 . . . 110.36(9) yes
O1 Si2 O4 . . 3_554 111.47(9) yes
O2 Si2 O4 . . . 108.50(9) yes
O2 Si2 O4 . . 3_554 105.77(9) yes
O4 Si2 O4 . . 3_554 106.41(9) yes
O4 Si2 O4 3_554 . . 106.41(9) yes
O1 Li1 O1 1_554 . . 168.2(2) yes
O1 Li1 O1 1_554 . 3_564 76.52(15) yes
O1 Li1 O1 1_554 . 7_555 92.43(16) yes
O1 Li1 O4 1_554 . 1_554 61.38(12) yes
O1 Li1 O1 . . 1_554 168.2(2) yes
O1 Li1 O1 . . 3_564 106.3(2) yes
O1 Li1 O1 . . 7_555 98.4(2) yes
O1 Li1 O4 . . 1_554 109.4(2) yes
O1 Li1 O1 3_564 . 1_554 76.52(15) yes
O1 Li1 O1 3_564 . . 106.3(2) yes
O1 Li1 O1 3_564 . 7_555 98.7(2) yes
O1 Li1 O4 3_564 . 1_554 126.5(2) yes
O1 Li1 O1 7_555 . 1_554 92.43(16) yes
O1 Li1 O1 7_555 . . 98.4(2) yes
O1 Li1 O1 7_555 . 3_564 98.7(2) yes
O1 Li1 O4 7_555 . 1_554 113.6(2) yes
loop_
_geom_bond_atom_site_label_1
_geom_bond_atom_site_label_2
_geom_bond_site_symmetry_1
_geom_bond_site_symmetry_2
_geom_bond_distance
_geom_bond_publ_flag
Si1 O2 . . 1.5993(19) yes
Si1 O2 . 2_555 1.5993(19) yes
Si1 O3 . . 1.612(3) yes
Si1 O3 . 3_564 1.615(3) yes
Si2 O1 . . 1.5759(18) yes
Si2 O2 . . 1.6139(19) yes
Si2 O4 . . 1.6515(17) yes
Si2 O4 . 3_554 1.6531(18) yes
Li1 O1 . 1_554 2.932(5) yes
Li1 O1 . . 1.962(5) yes
Li1 O1 . 3_564 1.921(5) yes
Li1 O1 . 7_555 1.957(4) yes
Li1 O4 . 1_554 2.036(5) yes
loop_
_refln_index_h
_refln_index_k
_refln_index_l
_refln_intensity_meas
_refln_intensity_calc
_refln_intensity_sigma
_refln_observed_status
4 0 0 3291.0 3515.1 120.6 o
6 0 0 84512.8 84806.3 1696.9 o
8 0 0 5.8 0.9 57.9 <
10 0 0 1425.4 1388.4 59.0 o
12 0 0 9082.5 8264.2 189.6 o
14 0 0 47870.1 47125.0 960.7 o
16 0 0 1569.6 1577.8 51.2 o
18 0 0 94.8 72.1 36.6 <
20 0 0 18182.4 16969.4 367.5 o
22 0 0 47.7 33.8 34.6 <
24 0 0 1255.8 1202.1 43.7 o
26 0 0 2831.4 2807.7 68.6 o
0 1 0 3171.1 3422.1 128.4 o
2 1 0 7042.6 7363.5 160.3 o
4 1 0 64337.8 62161.1 1292.8 o
6 1 0 112.9 86.0 47.7 <
8 1 0 334.7 247.6 37.9 o
10 1 0 54638.4 51971.1 1094.8 o
12 1 0 106.6 99.8 29.6 o
14 1 0 661.1 686.7 32.6 o
16 1 0 9094.2 8744.5 184.7 o
18 1 0 1007.5 1027.4 33.2 o
20 1 0 -13.5 0.6 25.1 <
22 1 0 880.7 824.8 30.7 o
24 1 0 2834.3 2600.3 62.2 o
26 1 0 54.5 115.6 28.8 <
0 2 0 13819.7 13258.7 289.2 o
2 2 0 340.2 287.7 49.0 o
4 2 0 33.8 34.2 43.3 <
6 2 0 2095.3 1602.8 56.7 o
8 2 0 3998.4 3250.2 88.6 o
10 2 0 11.5 2.0 32.1 <
12 2 0 382.8 345.0 35.9 o
14 2 0 3005.3 3273.0 69.9 o
16 2 0 1567.7 1692.5 50.4 o
18 2 0 407.9 437.9 30.8 o
20 2 0 409.2 354.2 29.7 o
22 2 0 23.8 1.7 24.4 <
24 2 0 646.5 672.9 29.7 o
26 2 0 31.1 40.5 36.0 <
0 3 0 1024.0 932.4 56.7 o
2 3 0 456.3 301.4 37.1 o
4 3 0 31598.2 31425.1 634.5 o
6 3 0 1404.5 1214.0 48.6 o
8 3 0 658.0 571.5 34.5 o
10 3 0 45298.6 46199.6 907.7 o
12 3 0 65.9 13.3 26.2 <
14 3 0 3404.6 3504.4 74.0 o
16 3 0 4747.1 4817.9 99.7 o
18 3 0 2206.2 2063.7 53.9 o
20 3 0 53.6 5.1 24.4 <
22 3 0 236.0 228.8 25.1 o
24 3 0 5794.6 5683.4 120.0 o
0 4 0 40470.9 41103.2 813.1 o
2 4 0 1070.5 1053.9 36.5 o
4 4 0 1293.8 1261.8 40.6 o
6 4 0 24733.4 25033.4 497.7 o
8 4 0 4244.7 4256.3 92.5 o
10 4 0 278.8 292.5 28.2 o
12 4 0 661.4 657.5 30.0 o
14 4 0 9680.7 9357.5 197.3 o
16 4 0 22.7 81.4 28.8 <
18 4 0 480.5 458.8 30.3 o
20 4 0 7744.0 7517.1 158.0 o
22 4 0 720.8 641.7 30.3 o
0 5 0 174.9 170.0 39.0 o
2 5 0 3226.8 3231.2 71.0 o
4 5 0 1302.3 1335.2 40.6 o
6 5 0 2769.1 2915.2 65.9 o
8 5 0 159.3 129.0 30.4 o
10 5 0 347.4 273.7 24.9 o
12 5 0 13.2 4.7 21.7 <
14 5 0 165.5 168.8 28.8 o
16 5 0 1551.9 1443.8 43.2 o
18 5 0 155.8 125.8 26.0 o
20 5 0 284.3 301.4 29.3 o
0 6 0 7972.5 7742.9 165.3 o
2 6 0 75.6 51.6 25.2 <
4 6 0 4.7 5.5 28.5 <
6 6 0 1584.3 1630.4 48.6 o
8 6 0 352.7 258.5 29.6 o
10 6 0 151.4 145.0 24.9 o
12 6 0 391.4 330.5 27.2 o
14 6 0 3268.0 3230.6 71.4 o
16 6 0 730.3 737.6 29.2 o
18 6 0 1068.4 1102.6 33.7 o
0 7 0 167.4 107.7 34.5 o
2 7 0 291.0 338.5 29.2 o
4 7 0 4367.4 4302.1 91.7 o
6 7 0 103.1 116.1 28.3 o
8 7 0 1782.3 1937.6 44.4 o
10 7 0 4805.0 4764.8 100.4 o
12 7 0 430.0 467.5 26.4 o
14 7 0 327.0 352.2 26.1 o
0 8 0 71.6 64.6 35.2 <
2 8 0 63.8 75.6 35.1 <
4 8 0 283.9 283.5 36.1 o
6 8 0 127.5 257.4 36.3 o
0 1 1 10143.7 10631.5 220.8 o
1 1 1 41651.0 40686.7 837.4 o
2 1 1 2439.7 2405.1 67.9 o
3 1 1 3486.8 3346.5 86.6 o
4 1 1 562.2 460.4 41.3 o
5 1 1 644.2 599.5 38.0 o
6 1 1 5570.4 5801.5 117.5 o
7 1 1 194.7 520.0 28.2 o
8 1 1 3472.3 3631.6 75.1 o
9 1 1 1649.5 1522.5 42.8 o
10 1 1 1410.0 1378.8 38.0 o
11 1 1 249.9 258.1 23.0 o
12 1 1 2493.0 2659.2 55.0 o
13 1 1 5068.1 5170.5 104.5 o
14 1 1 2460.5 2691.9 55.2 o
15 1 1 12986.7 13623.5 261.9 o
16 1 1 -15.5 12.2 22.3 <
17 1 1 149.5 160.7 19.2 o
18 1 1 268.5 292.7 19.0 o
19 1 1 124.5 42.3 18.5 o
20 1 1 785.7 797.4 23.9 o
21 1 1 5255.9 5148.8 107.1 o
22 1 1 214.1 151.4 18.5 o
23 1 1 1365.8 1259.4 32.7 o
24 1 1 23.6 1.1 17.2 <
25 1 1 263.0 296.4 17.8 o
26 1 1 155.4 169.8 18.1 o
0 2 1 6322.2 5872.9 138.8 o
1 2 1 1759.0 1708.3 48.3 o
2 2 1 10605.2 10457.3 215.6 o
3 2 1 1096.8 1763.0 39.3 o
4 2 1 12158.7 12045.5 246.0 o
5 2 1 15495.1 14549.2 312.7 o
6 2 1 945.0 874.7 31.1 o
7 2 1 1023.1 1054.0 35.3 o
8 2 1 2226.8 2250.8 51.4 o
9 2 1 2743.8 2864.6 59.9 o
10 2 1 6466.4 6483.9 131.9 o
11 2 1 19534.0 19905.8 392.0 o
12 2 1 467.9 430.6 22.9 o
13 2 1 3183.0 3257.7 67.7 o
14 2 1 35.2 47.0 19.6 <
15 2 1 618.8 638.8 24.4 o
16 2 1 2282.1 2376.8 50.8 o
17 2 1 6785.1 6672.5 137.6 o
18 2 1 1222.4 1225.8 31.5 o
19 2 1 350.2 268.4 18.8 o
20 2 1 133.8 99.7 17.6 o
21 2 1 214.9 199.5 16.9 o
22 2 1 671.8 626.4 21.7 o
23 2 1 1615.8 1459.6 36.9 o
24 2 1 687.0 737.0 23.6 o
25 2 1 4287.5 4162.3 88.7 o
0 3 1 6430.2 6206.1 134.6 o
1 3 1 1899.7 1566.6 46.6 o
2 3 1 68.1 42.5 26.6 <
3 3 1 235.4 198.1 25.5 o
4 3 1 252.0 219.6 25.2 o
5 3 1 135.3 82.0 24.4 o
6 3 1 4837.8 4836.5 99.7 o
7 3 1 1648.6 1525.8 40.5 o
8 3 1 756.4 751.2 29.8 o
9 3 1 952.0 935.1 33.2 o
10 3 1 396.1 375.2 22.1 o
11 3 1 633.7 593.6 23.9 o
12 3 1 1385.2 1460.5 34.8 o
13 3 1 171.6 146.5 20.0 o
14 3 1 621.6 598.5 23.1 o
15 3 1 178.7 113.4 18.6 o
16 3 1 213.0 127.0 18.9 o
17 3 1 660.7 674.7 23.6 o
18 3 1 208.2 212.7 18.2 o
19 3 1 192.6 168.9 18.4 o
20 3 1 395.6 378.2 20.9 o
21 3 1 1836.8 1711.3 41.4 o
22 3 1 -30.3 0.3 19.8 <
23 3 1 94.9 44.1 18.1 o
24 3 1 53.8 23.8 17.6 o
0 4 1 36.9 39.0 31.7 <
1 4 1 763.9 791.3 26.5 o
2 4 1 42.1 11.8 23.4 <
3 4 1 6698.5 6630.2 136.5 o
4 4 1 0.0 2.1 21.4 <
5 4 1 6922.5 6662.4 140.7 o
6 4 1 127.9 138.2 21.0 o
7 4 1 42.1 19.2 20.6 <
8 4 1 79.8 15.6 22.6 o
9 4 1 8644.3 9080.9 175.3 o
10 4 1 63.9 20.0 19.8 o
11 4 1 7155.5 7431.1 144.8 o
12 4 1 581.8 563.2 22.1 o
13 4 1 2201.6 2347.4 48.4 o
14 4 1 141.9 82.0 18.0 o
15 4 1 272.2 237.2 19.0 o
16 4 1 55.1 45.9 18.1 o
17 4 1 1699.8 1650.3 39.1 o
18 4 1 574.1 550.5 22.2 o
19 4 1 55.4 4.2 18.4 o
20 4 1 48.6 13.9 18.0 <
21 4 1 483.4 500.9 21.1 o
22 4 1 62.9 16.3 20.9 o
23 4 1 1211.7 1238.5 31.4 o
0 5 1 642.3 427.5 32.0 o
1 5 1 12604.3 12534.6 253.4 o
2 5 1 523.5 470.1 24.0 o
3 5 1 3162.5 3236.5 67.0 o
4 5 1 45.2 80.6 19.4 <
5 5 1 3081.9 3200.7 64.8 o
6 5 1 427.9 403.8 21.7 o
7 5 1 14975.6 15313.4 301.1 o
8 5 1 1427.6 1440.7 35.6 o
9 5 1 60.1 1.5 20.5 <
10 5 1 249.4 247.6 18.1 o
11 5 1 43.0 10.7 18.3 <
12 5 1 132.8 135.5 17.9 o
13 5 1 5371.0 5259.6 109.5 o
14 5 1 1004.6 1004.2 27.3 o
15 5 1 3720.5 3470.0 77.5 o
16 5 1 35.5 9.9 20.0 <
17 5 1 539.7 568.8 22.8 o
18 5 1 -25.7 4.1 18.3 <
19 5 1 746.0 768.6 23.7 o
20 5 1 275.0 312.0 20.4 o
0 6 1 269.7 213.5 24.1 o
1 6 1 138.3 132.1 18.6 o
2 6 1 311.6 286.5 20.2 o
3 6 1 5213.1 5151.5 107.0 o
4 6 1 539.0 504.8 23.3 o
5 6 1 324.7 271.1 23.2 o
6 6 1 49.7 75.4 18.7 <
7 6 1 1578.3 1593.9 36.8 o
8 6 1 35.9 0.6 19.4 <
9 6 1 299.2 203.5 19.7 o
10 6 1 384.6 371.0 19.7 o
11 6 1 2792.7 2679.3 59.0 o
12 6 1 41.8 64.0 17.4 <
13 6 1 64.8 12.6 19.0 o
14 6 1 91.0 56.8 19.1 o
15 6 1 152.9 160.1 20.1 o
16 6 1 173.3 171.3 19.8 o
17 6 1 3038.9 3166.6 64.8 o
0 7 1 72.8 29.4 28.0 <
1 7 1 1095.2 1044.0 28.2 o
2 7 1 175.8 128.6 21.2 o
3 7 1 229.3 250.6 18.4 o
4 7 1 14.0 43.3 17.7 <
5 7 1 444.7 408.3 19.7 o
6 7 1 40.4 21.5 18.8 <
7 7 1 124.9 71.8 18.7 o
8 7 1 96.5 72.9 19.3 o
9 7 1 63.9 90.5 17.4 o
10 7 1 55.3 12.6 18.5 <
11 7 1 76.9 46.9 19.5 o
12 7 1 4.9 0.0 19.4 <
13 7 1 121.6 145.2 20.4 o
0 8 1 91.5 0.3 35.0 <
1 8 1 40.8 6.8 20.2 <
2 8 1 120.7 157.0 20.7 o
3 8 1 3862.1 4092.0 80.4 o
4 8 1 130.9 136.4 19.7 o
0 0 2 99799.0 101171.6 2002.9 o
1 0 2 1236.7 1147.4 52.9 o
2 0 2 84.1 6.0 47.0 <
3 0 2 2208.1 2030.1 62.7 o
4 0 2 1230.6 1236.7 50.9 o
5 0 2 1603.5 1327.7 52.1 o
6 0 2 8644.3 8887.1 178.5 o
7 0 2 2086.2 2343.0 56.6 o
8 0 2 744.6 587.8 38.3 o
9 0 2 2042.5 2115.2 53.7 o
10 0 2 524.9 564.9 36.5 o
11 0 2 2189.9 2270.2 54.3 o
12 0 2 181.3 158.4 31.1 o
13 0 2 2886.8 3161.2 66.3 o
14 0 2 17116.5 17693.7 344.7 o
15 0 2 4429.2 4728.4 94.3 o
16 0 2 1259.9 1327.4 37.5 o
17 0 2 378.3 342.5 27.0 o
18 0 2 1091.4 1046.2 35.3 o
19 0 2 200.4 158.0 26.8 o
20 0 2 5590.3 5471.4 115.7 o
21 0 2 2721.4 2741.3 60.8 o
22 0 2 37.2 12.7 22.8 <
23 0 2 164.6 103.4 26.4 o
24 0 2 1824.5 1732.9 44.9 o
25 0 2 411.7 496.1 25.2 o
0 1 2 182.9 215.1 47.1 o
1 1 2 21.6 16.0 33.3 <
2 1 2 45.3 1.9 37.3 <
3 1 2 80.5 24.9 31.1 <
4 1 2 8920.4 9201.4 182.5 o
5 1 2 288.3 359.5 35.7 o
6 1 2 195.4 133.4 29.7 o
7 1 2 42.7 11.2 27.0 <
8 1 2 329.5 274.2 28.6 o
9 1 2 182.1 115.5 25.8 o
10 1 2 11620.1 11942.4 234.6 o
11 1 2 1030.8 1056.1 30.8 o
12 1 2 23.8 0.8 20.7 <
13 1 2 214.2 240.8 25.2 o
14 1 2 900.7 985.2 29.5 o
15 1 2 808.5 847.8 27.5 o
16 1 2 1212.6 1284.1 31.1 o
17 1 2 912.9 895.7 26.9 o
18 1 2 553.3 518.5 21.8 o
19 1 2 985.2 925.5 27.1 o
20 1 2 35.4 11.7 18.6 <
21 1 2 736.1 748.5 23.6 o
22 1 2 74.8 14.4 17.9 o
23 1 2 380.2 326.0 19.3 o
24 1 2 1264.5 1263.8 31.6 o
25 1 2 847.6 881.1 26.2 o
0 2 2 12819.9 11458.3 262.4 o
1 2 2 4882.4 4536.0 104.0 o
2 2 2 162.0 113.6 35.1 o
3 2 2 -23.3 1.0 29.9 <
4 2 2 145.4 167.1 27.6 o
5 2 2 534.7 579.2 30.1 o
6 2 2 58.3 12.9 26.1 <
7 2 2 3947.4 3973.9 84.2 o
8 2 2 1530.1 1559.5 40.9 o
9 2 2 50.4 12.4 28.1 <
10 2 2 159.8 173.6 24.7 o
11 2 2 66.2 19.5 21.9 o
12 2 2 47.9 4.2 21.4 <
13 2 2 2903.4 3114.5 62.0 o
14 2 2 1863.3 2027.0 42.8 o
15 2 2 176.6 143.4 20.5 o
16 2 2 631.0 575.7 24.5 o
17 2 2 51.4 15.5 18.6 <
18 2 2 64.9 68.9 18.7 o
19 2 2 690.7 728.2 24.1 o
20 2 2 248.9 204.0 18.0 o
21 2 2 142.5 78.4 19.4 o
22 2 2 118.9 88.4 19.4 o
23 2 2 -6.3 6.6 18.7 <
24 2 2 362.7 344.4 20.4 o
0 3 2 1132.4 1160.2 42.6 o
1 3 2 56.7 2.4 23.9 <
2 3 2 558.9 476.7 27.9 o
3 3 2 13097.8 13141.2 264.3 o
4 3 2 12171.6 12081.9 246.0 o
5 3 2 2060.3 2012.2 50.0 o
6 3 2 335.6 295.4 27.7 o
7 3 2 81.0 3.5 28.2 <
8 3 2 448.1 476.6 35.2 o
9 3 2 4783.4 5040.3 101.1 o
10 3 2 18764.1 19913.2 377.4 o
11 3 2 4506.7 4599.7 94.0 o
12 3 2 61.1 26.7 22.7 <
13 3 2 82.3 74.9 21.9 o
14 3 2 2663.1 2693.3 57.0 o
15 3 2 20.5 14.1 18.6 <
16 3 2 1589.6 1485.5 38.0 o
17 3 2 3948.8 3857.2 82.3 o
18 3 2 547.4 555.8 23.4 o
19 3 2 916.7 874.1 30.0 o
20 3 2 -8.1 3.4 19.9 <
21 3 2 230.2 214.5 19.5 o
22 3 2 -18.4 44.7 23.4 <
23 3 2 1761.5 1918.7 43.0 o
0 4 2 11494.0 11853.0 233.5 o
1 4 2 2010.2 1926.8 46.0 o
2 4 2 866.3 766.9 28.5 o
3 4 2 33.7 18.4 21.8 <
4 4 2 665.1 669.0 26.3 o
5 4 2 106.4 133.0 22.4 o
6 4 2 6826.8 7308.6 138.9 o
7 4 2 3398.6 3469.4 73.7 o
8 4 2 1475.4 1483.6 39.6 o
9 4 2 792.0 836.5 26.9 o
10 4 2 121.5 113.6 19.5 o
11 4 2 339.7 325.1 22.6 o
12 4 2 20.9 1.0 20.0 <
13 4 2 1911.8 1898.1 43.5 o
14 4 2 3337.2 3236.1 70.1 o
15 4 2 1771.8 1718.8 41.7 o
16 4 2 41.7 31.2 19.2 <
17 4 2 290.1 197.6 19.4 o
18 4 2 733.4 753.6 24.7 o
19 4 2 237.7 218.4 22.4 o
20 4 2 2994.9 2955.4 63.9 o
21 4 2 1357.0 1467.2 35.9 o
22 4 2 329.8 401.4 25.9 o
0 5 2 219.3 114.9 29.0 o
1 5 2 75.9 58.3 19.9 o
2 5 2 787.6 800.5 25.5 o
3 5 2 1298.8 1321.4 34.4 o
4 5 2 54.2 45.7 22.5 <
5 5 2 50.0 10.3 21.1 <
6 5 2 737.2 704.5 26.6 o
7 5 2 34.2 18.6 21.5 <
8 5 2 328.7 328.3 20.5 o
9 5 2 881.8 931.3 26.5 o
10 5 2 107.4 64.8 19.2 o
11 5 2 -2.3 0.8 19.8 <
12 5 2 121.3 82.9 19.6 o
13 5 2 53.6 29.3 18.8 <
14 5 2 138.4 117.6 18.2 o
15 5 2 241.9 199.4 21.0 o
16 5 2 255.1 258.0 20.0 o
17 5 2 49.6 28.2 19.9 <
18 5 2 241.8 211.3 20.8 o
19 5 2 105.0 92.6 20.4 o
0 6 2 6655.5 6487.9 141.6 o
1 6 2 4344.2 4221.7 90.6 o
2 6 2 268.9 195.9 18.4 o
3 6 2 185.5 133.4 20.3 o
4 6 2 261.3 202.3 22.3 o
5 6 2 824.5 748.9 26.3 o
6 6 2 1940.4 1875.1 44.0 o
7 6 2 6225.6 6176.0 126.5 o
8 6 2 98.7 31.9 18.3 o
9 6 2 20.8 0.1 17.8 <
10 6 2 60.2 24.1 20.1 <
11 6 2 29.0 0.6 20.9 <
12 6 2 56.0 14.9 19.7 <
13 6 2 4520.2 4692.3 93.1 o
14 6 2 1635.8 1604.0 38.7 o
15 6 2 247.3 208.5 21.3 o
16 6 2 101.6 74.1 20.9 o
0 7 2 42.6 8.3 25.4 <
1 7 2 -1.0 0.6 25.7 <
2 7 2 381.5 294.5 26.5 o
3 7 2 6583.7 6555.4 135.0 o
4 7 2 2736.6 2660.0 59.2 o
5 7 2 701.7 696.3 25.4 o
6 7 2 423.6 450.3 22.0 o
7 7 2 250.7 318.9 21.6 o
8 7 2 1031.8 1171.6 30.6 o
9 7 2 2562.3 2757.3 57.0 o
10 7 2 2800.3 2981.4 60.8 o
11 7 2 1663.5 1898.2 40.1 o
0 1 3 14334.4 14390.6 291.5 o
1 1 3 9466.6 9017.7 192.3 o
2 1 3 4896.1 5104.6 102.5 o
3 1 3 3333.5 3362.7 73.6 o
4 1 3 1260.5 1210.3 39.6 o
5 1 3 18.1 24.2 29.5 <
6 1 3 8448.1 9045.7 172.9 o
7 1 3 227.1 168.3 27.7 o
8 1 3 9579.8 10101.9 194.5 o
9 1 3 2593.7 2785.8 60.2 o
10 1 3 3874.3 4090.7 82.1 o
11 1 3 293.5 319.7 25.0 o
12 1 3 4723.4 5018.5 98.0 o
13 1 3 1760.6 1840.1 41.0 o
14 1 3 8480.8 8833.9 171.5 o
15 1 3 1829.5 1861.9 41.9 o
16 1 3 -8.5 13.7 18.4 <
17 1 3 198.1 198.9 19.1 o
18 1 3 341.6 365.9 20.6 o
19 1 3 48.8 34.1 18.0 <
20 1 3 2345.6 2380.4 51.2 o
21 1 3 330.8 322.7 20.0 o
22 1 3 745.1 735.3 23.9 o
23 1 3 1138.3 1154.8 30.2 o
0 2 3 10549.8 10899.8 217.6 o
1 2 3 2905.4 2677.1 65.7 o
2 2 3 16583.3 17338.6 333.8 o
3 2 3 3732.9 3508.9 80.0 o
4 2 3 20419.0 21463.7 410.1 o
5 2 3 1512.6 1377.2 40.2 o
6 2 3 1069.6 1065.8 32.3 o
7 2 3 2206.1 2243.2 51.4 o
8 2 3 3060.6 3295.6 66.3 o
9 2 3 2955.7 3092.8 63.9 o
10 2 3 12430.0 13291.5 250.7 o
11 2 3 3243.3 3360.7 69.1 o
12 2 3 2423.6 2571.4 53.9 o
13 2 3 3733.6 3872.2 79.8 o
14 2 3 708.3 697.3 27.5 o
15 2 3 38.1 8.3 20.7 <
16 2 3 4534.5 4668.2 93.4 o
17 2 3 1005.5 944.9 28.3 o
18 2 3 5779.3 5649.4 118.3 o
19 2 3 233.2 266.1 21.2 o
20 2 3 634.2 611.6 24.1 o
21 2 3 1.8 1.6 18.2 <
22 2 3 995.2 1067.1 27.6 o
23 2 3 361.6 392.8 21.3 o
0 3 3 6035.0 6564.3 127.8 o
1 3 3 325.8 212.7 26.8 o
2 3 3 192.2 193.5 24.3 o
3 3 3 1619.3 1717.7 41.4 o
4 3 3 312.6 285.7 24.3 o
5 3 3 493.0 475.6 29.6 o
6 3 3 5494.5 5952.9 114.7 o
7 3 3 3473.1 3486.6 74.7 o
8 3 3 2011.5 2141.8 46.8 o
9 3 3 43.5 41.1 20.3 <
10 3 3 556.1 560.9 24.0 o
11 3 3 23.6 15.0 22.7 <
12 3 3 1713.1 1687.2 40.5 o
13 3 3 478.2 380.0 22.6 o
14 3 3 1620.4 1560.3 38.3 o
15 3 3 245.6 188.8 20.9 o
16 3 3 166.8 128.0 23.1 o
17 3 3 329.4 310.6 21.4 o
18 3 3 158.6 134.1 20.4 o
19 3 3 232.5 197.4 21.1 o
20 3 3 908.2 953.5 29.9 o
21 3 3 204.5 217.3 24.1 o
0 4 3 1336.8 1328.7 43.2 o
1 4 3 762.3 731.8 28.3 o
2 4 3 762.9 689.4 29.4 o
3 4 3 336.9 350.8 23.4 o
4 4 3 649.7 604.4 28.0 o
5 4 3 729.6 768.0 28.7 o
6 4 3 78.6 2.8 22.6 o
7 4 3 12.6 1.3 23.3 <
8 4 3 201.7 242.7 22.9 o
9 4 3 126.9 71.8 19.4 o
10 4 3 236.2 198.3 20.9 o
11 4 3 702.5 630.8 26.5 o
12 4 3 1152.4 1110.1 34.4 o
13 4 3 721.6 692.4 24.9 o
14 4 3 348.8 370.9 21.4 o
15 4 3 673.3 612.1 25.1 o
16 4 3 22.5 0.1 22.0 <
17 4 3 24.8 3.1 21.9 <
18 4 3 1625.6 1645.7 40.2 o
19 4 3 -2.8 2.1 22.4 <
20 4 3 161.1 143.1 25.5 o
0 5 3 3345.5 3142.5 74.5 o
1 5 3 559.5 508.2 26.1 o
2 5 3 1262.6 1341.4 38.5 o
3 5 3 1579.4 1610.7 45.5 o
4 5 3 819.5 763.4 37.7 o
5 5 3 67.2 14.8 24.4 <
6 5 3 2652.5 2614.8 58.6 o
7 5 3 719.7 734.5 25.0 o
8 5 3 5618.5 5515.4 114.8 o
9 5 3 134.9 97.2 20.2 o
10 5 3 1855.5 1802.1 42.3 o
11 5 3 435.1 410.1 21.2 o
12 5 3 849.8 816.3 28.9 o
13 5 3 39.7 48.1 21.7 <
14 5 3 4128.9 4184.7 85.7 o
15 5 3 407.0 447.1 23.0 o
16 5 3 107.3 6.4 21.3 o
17 5 3 558.9 631.3 23.8 o
0 6 3 825.9 852.0 47.4 o
1 6 3 60.5 0.3 30.0 <
2 6 3 1100.2 1076.8 36.2 o
3 6 3 650.0 703.9 28.3 o
4 6 3 1897.8 1938.8 45.3 o
5 6 3 16.0 11.9 22.5 <
6 6 3 357.4 333.1 23.9 o
7 6 3 1371.6 1343.7 34.9 o
8 6 3 35.4 13.5 19.6 <
9 6 3 47.1 19.0 22.7 <
10 6 3 1353.1 1373.6 34.7 o
11 6 3 356.2 285.7 22.9 o
12 6 3 218.1 265.0 25.2 o
13 6 3 82.7 84.6 23.3 o
0 7 3 15.2 6.3 27.6 <
1 7 3 11.2 50.3 24.1 <
2 7 3 267.3 351.2 25.1 o
3 7 3 2.5 0.4 20.1 <
4 7 3 92.8 30.5 25.7 o
5 7 3 24.2 7.8 25.5 <
6 7 3 -1.4 4.9 28.4 <
7 7 3 85.4 131.9 31.2 <
0 0 4 168.8 4.9 49.3 o
1 0 4 7745.4 8030.4 160.3 o
2 0 4 475.6 330.5 32.8 o
3 0 4 723.0 713.3 34.8 o
4 0 4 689.9 723.7 34.2 o
5 0 4 51.7 6.6 31.8 <
6 0 4 4247.5 4451.8 92.0 o
7 0 4 11031.6 11393.0 225.7 o
8 0 4 2809.7 3107.7 65.2 o
9 0 4 63.9 4.2 30.5 <
10 0 4 405.8 415.8 31.8 o
11 0 4 2591.9 2489.5 60.7 o
12 0 4 2380.8 2480.7 57.1 o
13 0 4 9583.4 9709.2 195.4 o
14 0 4 -8.7 48.3 28.2 <
15 0 4 2469.8 2471.6 58.2 o
16 0 4 324.9 262.7 28.8 o
17 0 4 872.7 933.8 33.8 o
18 0 4 1698.0 1676.0 45.2 o
19 0 4 1103.1 1114.8 36.5 o
20 0 4 121.9 129.6 28.6 o
21 0 4 1784.8 1996.8 47.2 o
0 1 4 22.3 24.4 33.6 <
1 1 4 527.2 497.7 25.5 o
2 1 4 2227.5 2355.5 50.7 o
3 1 4 4398.5 4602.7 92.0 o
4 1 4 895.2 918.0 31.2 o
5 1 4 391.1 332.8 25.9 o
6 1 4 53.9 45.8 30.6 <
7 1 4 770.9 742.3 30.6 o
8 1 4 961.0 961.5 30.4 o
9 1 4 1248.6 1350.8 34.8 o
10 1 4 372.4 311.1 23.3 o
11 1 4 1770.7 1782.4 43.9 o
12 1 4 31.2 14.0 23.0 <
13 1 4 91.1 99.6 22.2 o
14 1 4 794.5 735.3 27.1 o
15 1 4 108.7 118.3 21.0 o
16 1 4 812.8 768.9 26.9 o
17 1 4 1711.8 1725.1 40.4 o
18 1 4 43.6 7.2 20.3 <
19 1 4 219.2 216.1 21.3 o
20 1 4 57.8 36.6 19.8 <
21 1 4 446.6 532.0 22.9 o
0 2 4 2715.9 2830.7 65.5 o
1 2 4 1392.4 1339.6 39.1 o
2 2 4 95.1 19.9 25.2 o
3 2 4 78.2 30.4 23.3 o
4 2 4 247.2 151.1 23.8 o
5 2 4 0.0 4.9 22.9 <
6 2 4 78.0 26.7 25.7 o
7 2 4 1264.4 1250.0 36.4 o
8 2 4 533.0 517.6 27.7 o
9 2 4 57.1 3.3 23.9 <
10 2 4 290.9 300.6 21.6 o
11 2 4 100.5 72.0 21.6 o
12 2 4 200.4 141.9 21.6 o
13 2 4 1479.5 1476.6 36.5 o
14 2 4 383.7 337.1 22.0 o
15 2 4 239.5 268.7 21.0 o
16 2 4 34.2 25.5 20.1 <
17 2 4 -36.9 0.2 20.2 <
18 2 4 52.1 20.1 20.3 <
19 2 4 248.1 213.3 22.1 o
20 2 4 56.2 4.0 20.6 <
0 3 4 1076.1 1061.5 48.4 o
1 3 4 546.4 463.5 27.3 o
2 3 4 1205.4 1163.4 37.3 o
3 3 4 12515.1 12658.8 252.8 o
4 3 4 152.1 13.1 32.5 o
5 3 4 1081.2 1156.1 33.1 o
6 3 4 20.1 12.7 21.5 <
7 3 4 577.1 509.6 24.8 o
8 3 4 280.0 238.4 22.4 o
9 3 4 4280.3 4381.8 89.4 o
10 3 4 379.9 400.5 25.1 o
11 3 4 4352.2 4303.7 90.8 o
12 3 4 389.6 370.7 23.9 o
13 3 4 76.1 34.9 21.1 o
14 3 4 1041.1 1060.6 31.5 o
15 3 4 86.5 89.4 22.4 o
16 3 4 152.3 130.8 22.5 o
17 3 4 4113.3 4132.2 86.2 o
18 3 4 210.7 173.2 21.1 o
19 3 4 452.5 540.2 23.0 o
0 4 4 321.6 202.0 50.4 o
1 4 4 3154.0 3173.4 73.5 o
2 4 4 593.8 548.7 29.7 o
3 4 4 678.7 670.4 27.1 o
4 4 4 208.4 193.1 24.9 o
5 4 4 187.9 121.7 24.7 o
6 4 4 84.8 71.8 22.0 o
7 4 4 6078.3 6172.5 124.7 o
8 4 4 29.9 32.7 22.2 <
9 4 4 69.0 65.7 20.1 o
10 4 4 49.0 19.3 20.7 <
11 4 4 831.8 815.7 27.9 o
12 4 4 746.6 738.9 26.9 o
13 4 4 3415.0 3534.2 71.7 o
14 4 4 -19.2 60.9 22.1 <
15 4 4 894.7 962.6 28.4 o
16 4 4 28.0 28.1 23.4 <
17 4 4 587.7 650.3 27.3 o
1 5 4 42.0 0.3 33.5 <
2 5 4 45.4 0.3 24.9 <
3 5 4 25.4 18.2 23.9 <
4 5 4 396.0 350.0 24.7 o
5 5 4 70.2 4.7 24.1 <
6 5 4 21.0 0.7 23.9 <
7 5 4 394.0 365.3 23.6 o
8 5 4 499.2 405.4 22.7 o
9 5 4 113.2 51.4 22.1 o
10 5 4 720.0 730.2 27.5 o
11 5 4 66.5 16.4 23.1 <
12 5 4 160.8 199.4 23.4 o
13 5 4 13.9 58.2 25.1 <
14 5 4 6.5 59.4 58.9 <
0 6 4 1490.6 1338.2 60.2 o
1 6 4 1916.2 2057.8 52.4 o
2 6 4 257.9 278.5 31.1 o
3 6 4 37.0 8.6 28.5 <
4 6 4 335.5 362.3 27.5 o
5 6 4 73.1 50.5 26.2 <
6 6 4 430.6 497.3 29.7 o
7 6 4 3590.4 3742.7 76.7 o
8 6 4 115.9 113.7 26.5 o
9 6 4 34.5 42.1 39.2 <
0 1 5 2393.6 2281.8 58.7 o
1 1 5 68.3 11.3 21.5 o
2 1 5 1114.0 1143.3 31.6 o
3 1 5 462.6 448.3 24.1 o
4 1 5 1307.2 1272.7 37.8 o
5 1 5 344.0 283.2 25.0 o
6 1 5 936.2 942.4 33.2 o
7 1 5 1385.8 1306.7 35.6 o
8 1 5 3283.8 3172.3 70.2 o
9 1 5 1248.9 1193.0 35.0 o
10 1 5 2899.9 2920.5 62.9 o
11 1 5 157.8 143.4 22.3 o
12 1 5 542.4 494.4 24.1 o
13 1 5 88.6 30.3 21.9 o
14 1 5 3452.2 3381.1 73.3 o
15 1 5 10.9 16.4 21.3 <
16 1 5 55.3 33.1 23.2 <
17 1 5 51.8 13.3 22.5 <
0 2 5 5071.8 5072.9 109.8 o
1 2 5 1005.8 847.7 32.5 o
2 2 5 2524.9 2440.9 56.8 o
3 2 5 309.6 206.2 24.0 o
4 2 5 3807.7 3637.5 80.3 o
5 2 5 179.3 128.5 25.1 o
6 2 5 525.7 478.5 28.1 o
7 2 5 285.1 279.1 22.2 o
8 2 5 134.5 97.6 22.1 o
9 2 5 69.2 28.1 20.2 o
10 2 5 1872.5 1866.9 45.6 o
11 2 5 334.3 257.9 23.6 o
12 2 5 1446.5 1418.2 36.0 o
13 2 5 822.8 848.5 26.8 o
14 2 5 1542.6 1537.2 38.2 o
15 2 5 40.8 27.0 21.5 <
16 2 5 262.1 200.2 23.2 o
0 3 5 -28.9 37.9 35.3 <
1 3 5 37.1 8.5 24.7 <
2 3 5 56.5 29.6 24.1 <
3 3 5 313.4 293.0 24.5 o
4 3 5 140.4 79.0 28.2 o
5 3 5 342.0 228.0 27.7 o
6 3 5 134.3 99.2 24.4 o
7 3 5 497.1 442.7 22.8 o
8 3 5 688.0 635.0 25.7 o
9 3 5 44.3 15.4 21.1 <
10 3 5 90.2 78.1 21.4 o
11 3 5 -1.3 23.9 23.3 <
12 3 5 -17.2 21.2 22.6 <
13 3 5 26.1 35.3 21.4 <
14 3 5 291.9 290.5 22.5 o
0 4 5 3142.8 2912.5 73.9 o
1 4 5 585.8 599.4 31.6 o
2 4 5 1088.1 1060.5 42.6 o
3 4 5 2157.6 2144.3 57.4 o
4 4 5 1487.1 1448.5 41.0 o
5 4 5 181.1 90.2 24.0 o
6 4 5 506.5 430.1 24.6 o
7 4 5 55.0 1.0 22.0 <
8 4 5 326.1 337.6 20.9 o
9 4 5 511.2 467.0 23.2 o
10 4 5 836.6 876.6 27.2 o
11 4 5 306.0 301.3 22.5 o
12 4 5 124.8 87.1 22.7 o
0 5 5 2894.9 2481.1 67.7 o
1 5 5 1105.7 1035.4 34.6 o
2 5 5 354.2 300.6 28.0 o
3 5 5 368.4 322.7 30.5 o
4 5 5 1193.1 1288.6 36.4 o
5 5 5 405.6 429.2 27.8 o
6 5 5 1817.1 1944.4 44.7 o
7 5 5 1428.2 1268.4 60.7 o
0 0 6 3539.1 3149.8 84.9 o
1 0 6 3231.4 3156.6 72.8 o
2 0 6 287.6 190.6 31.8 o
3 0 6 1882.1 1884.7 50.1 o
4 0 6 145.0 167.9 32.4 o
5 0 6 139.4 44.9 33.4 o
6 0 6 4155.2 4204.9 93.2 o
7 0 6 4853.3 4944.0 104.8 o
8 0 6 2564.8 2710.0 63.5 o
9 0 6 700.9 779.7 38.1 o
10 0 6 246.4 238.1 37.2 o
11 0 6 1255.2 1436.3 51.5 o
0 1 6 164.5 112.0 29.7 o
1 1 6 669.0 624.3 27.5 o
2 1 6 808.9 777.7 28.9 o
3 1 6 3374.2 3353.7 73.3 o
4 1 6 1458.2 1423.3 38.2 o
5 1 6 61.6 5.8 23.8 <
6 1 6 71.4 33.1 23.6 o
7 1 6 785.2 805.3 28.1 o
8 1 6 109.5 66.7 25.0 o
9 1 6 1189.1 1202.6 33.5 o
10 1 6 1125.2 1161.6 33.8 o
11 1 6 445.3 491.6 25.3 o
0 2 6 18.4 0.0 35.1 <
1 2 6 29.9 12.8 27.4 <
2 2 6 59.2 25.1 26.2 <
3 2 6 65.9 2.4 23.6 <
4 2 6 17.4 2.2 24.6 <
5 2 6 238.9 234.8 23.0 o
6 2 6 258.0 230.1 23.9 o
7 2 6 104.5 2.1 23.2 o
8 2 6 192.4 227.8 24.7 o
9 2 6 12.1 9.3 22.6 <
10 2 6 28.1 35.1 63.6 <
0 3 6 192.8 198.5 51.8 o
1 3 6 1134.7 1152.2 39.9 o
2 3 6 965.8 895.9 36.2 o
3 3 6 2267.8 2496.4 58.7 o
4 3 6 1487.5 1575.8 43.0 o
5 3 6 -3.9 0.7 24.1 <
6 3 6 9.8 2.2 32.1 <
