#------------------------------------------------------------------------------
#$Date: 2016-02-13 21:28:24 +0200 (Sat, 13 Feb 2016) $
#$Revision: 176429 $
#$URL: svn://www.crystallography.net/cod/cif/1/50/72/1507214.cif $
#------------------------------------------------------------------------------
#
# This file is available in the Crystallography Open Database (COD),
# http://www.crystallography.net/
#
# All data on this site have been placed in the public domain by the
# contributors.
#
data_1507214
loop_
_publ_author_name
'Seo, S.M.'
'Kim, G.H.'
'Lee, H.S.'
'Ko, S.-O.'
'Lee, O.S.'
'Kim, Y.H.'
'Kim, S.H.'
'Heo, N.H.'
'Lim, W.T.'
_publ_section_title
;
 Single-crystal structure of fully dehydrated sodium zeolite Y (FAU), Na
 71 (Si121 Al71 O384) - FAU
;
_journal_name_full
;
 Analytical Sciences: X-ray Structure Analysis Online
;
_journal_page_first              x209
_journal_page_last               x210
_journal_paper_doi               10.2116/analscix.22.x209
_journal_volume                  22
_journal_year                    2006
_chemical_formula_structural     'Na71 (Si121 Al71) O384'
_chemical_formula_sum            'Al71 Na71 O384 Si121'
_chemical_name_mineral           Faujasite
_space_group_IT_number           227
_symmetry_space_group_name_Hall  '-F 4vw 2vw 3'
_symmetry_space_group_name_H-M   'F d -3 m :2'
_cell_angle_alpha                90.
_cell_angle_beta                 90.
_cell_angle_gamma                90.
_cell_formula_units_Z            1
_cell_length_a                   24.946(3)
_cell_length_b                   24.946(3)
_cell_length_c                   24.946(3)
_cell_volume                     15524(3)
_cod_data_source_file
Na71Si121Al71O384_Faujasite_ZeoliteY_Fd-3mZ-DC103.cif
_cod_data_source_block           chateigner_
_cod_original_sg_symbol_H-M      'F d -3 m Z'
_cod_original_formula_sum        'Al71 Na71 Si121 O384'
_cod_database_code               1507214
loop_
_symmetry_equiv_pos_site_id
_symmetry_equiv_pos_as_xyz
1 '-z, y+3/4, x+3/4'
2 'z+3/4, -y, x+3/4'
3 'z+3/4, y+3/4, -x'
4 '-z, -y, -x'
5 'y+3/4, x+3/4, -z'
6 '-y, x+3/4, z+3/4'
7 'y+3/4, -x, z+3/4'
8 '-y, -x, -z'
9 'x+3/4, -z, y+3/4'
10 'x+3/4, z+3/4, -y'
11 '-x, z+3/4, y+3/4'
12 '-x, -z, -y'
13 '-z, x+3/4, y+3/4'
14 'z+3/4, x+3/4, -y'
15 'z+3/4, -x, y+3/4'
16 '-z, -x, -y'
17 'y+3/4, -z, x+3/4'
18 '-y, z+3/4, x+3/4'
19 'y+3/4, z+3/4, -x'
20 '-y, -z, -x'
21 'x+3/4, y+3/4, -z'
22 'x+3/4, -y, z+3/4'
23 '-x, y+3/4, z+3/4'
24 '-x, -y, -z'
25 'z, -y+1/4, -x+1/4'
26 '-z+1/4, y, -x+1/4'
27 '-z+1/4, -y+1/4, x'
28 'z, y, x'
29 '-y+1/4, -x+1/4, z'
30 'y, -x+1/4, -z+1/4'
31 '-y+1/4, x, -z+1/4'
32 'y, x, z'
33 '-x+1/4, z, -y+1/4'
34 '-x+1/4, -z+1/4, y'
35 'x, -z+1/4, -y+1/4'
36 'x, z, y'
37 'z, -x+1/4, -y+1/4'
38 '-z+1/4, -x+1/4, y'
39 '-z+1/4, x, -y+1/4'
40 'z, x, y'
41 '-y+1/4, z, -x+1/4'
42 'y, -z+1/4, -x+1/4'
43 '-y+1/4, -z+1/4, x'
44 'y, z, x'
45 '-x+1/4, -y+1/4, z'
46 '-x+1/4, y, -z+1/4'
47 'x, -y+1/4, -z+1/4'
48 'x, y, z'
49 '-z, y+1/4, x+1/4'
50 '-z+1/2, y+3/4, x+1/4'
51 '-z+1/2, y+1/4, x+3/4'
52 'z+3/4, -y+1/2, x+1/4'
53 'z+1/4, -y, x+1/4'
54 'z+1/4, -y+1/2, x+3/4'
55 'z+3/4, y+1/4, -x+1/2'
56 'z+1/4, y+3/4, -x+1/2'
57 'z+1/4, y+1/4, -x'
58 '-z, -y+1/2, -x+1/2'
59 '-z+1/2, -y, -x+1/2'
60 '-z+1/2, -y+1/2, -x'
61 'y+3/4, x+1/4, -z+1/2'
62 'y+1/4, x+3/4, -z+1/2'
63 'y+1/4, x+1/4, -z'
64 '-y, x+1/4, z+1/4'
65 '-y+1/2, x+3/4, z+1/4'
66 '-y+1/2, x+1/4, z+3/4'
67 'y+3/4, -x+1/2, z+1/4'
68 'y+1/4, -x, z+1/4'
69 'y+1/4, -x+1/2, z+3/4'
70 '-y, -x+1/2, -z+1/2'
71 '-y+1/2, -x, -z+1/2'
72 '-y+1/2, -x+1/2, -z'
73 'x+3/4, -z+1/2, y+1/4'
74 'x+1/4, -z, y+1/4'
75 'x+1/4, -z+1/2, y+3/4'
76 'x+3/4, z+1/4, -y+1/2'
77 'x+1/4, z+3/4, -y+1/2'
78 'x+1/4, z+1/4, -y'
79 '-x, z+1/4, y+1/4'
80 '-x+1/2, z+3/4, y+1/4'
81 '-x+1/2, z+1/4, y+3/4'
82 '-x, -z+1/2, -y+1/2'
83 '-x+1/2, -z, -y+1/2'
84 '-x+1/2, -z+1/2, -y'
85 '-z, x+1/4, y+1/4'
86 '-z+1/2, x+3/4, y+1/4'
87 '-z+1/2, x+1/4, y+3/4'
88 'z+3/4, x+1/4, -y+1/2'
89 'z+1/4, x+3/4, -y+1/2'
90 'z+1/4, x+1/4, -y'
91 'z+3/4, -x+1/2, y+1/4'
92 'z+1/4, -x, y+1/4'
93 'z+1/4, -x+1/2, y+3/4'
94 '-z, -x+1/2, -y+1/2'
95 '-z+1/2, -x, -y+1/2'
96 '-z+1/2, -x+1/2, -y'
97 'y+3/4, -z+1/2, x+1/4'
98 'y+1/4, -z, x+1/4'
99 'y+1/4, -z+1/2, x+3/4'
100 '-y, z+1/4, x+1/4'
101 '-y+1/2, z+3/4, x+1/4'
102 '-y+1/2, z+1/4, x+3/4'
103 'y+3/4, z+1/4, -x+1/2'
104 'y+1/4, z+3/4, -x+1/2'
105 'y+1/4, z+1/4, -x'
106 '-y, -z+1/2, -x+1/2'
107 '-y+1/2, -z, -x+1/2'
108 '-y+1/2, -z+1/2, -x'
109 'x+3/4, y+1/4, -z+1/2'
110 'x+1/4, y+3/4, -z+1/2'
111 'x+1/4, y+1/4, -z'
112 'x+3/4, -y+1/2, z+1/4'
113 'x+1/4, -y, z+1/4'
114 'x+1/4, -y+1/2, z+3/4'
115 '-x, y+1/4, z+1/4'
116 '-x+1/2, y+3/4, z+1/4'
117 '-x+1/2, y+1/4, z+3/4'
118 '-x, -y+1/2, -z+1/2'
119 '-x+1/2, -y, -z+1/2'
120 '-x+1/2, -y+1/2, -z'
121 'z, -y+3/4, -x+3/4'
122 'z+1/2, -y+1/4, -x+3/4'
123 'z+1/2, -y+3/4, -x+1/4'
124 '-z+1/4, y+1/2, -x+3/4'
125 '-z+3/4, y, -x+3/4'
126 '-z+3/4, y+1/2, -x+1/4'
127 '-z+1/4, -y+3/4, x+1/2'
128 '-z+3/4, -y+1/4, x+1/2'
129 '-z+3/4, -y+3/4, x'
130 'z, y+1/2, x+1/2'
131 'z+1/2, y, x+1/2'
132 'z+1/2, y+1/2, x'
133 '-y+1/4, -x+3/4, z+1/2'
134 '-y+3/4, -x+1/4, z+1/2'
135 '-y+3/4, -x+3/4, z'
136 'y, -x+3/4, -z+3/4'
137 'y+1/2, -x+1/4, -z+3/4'
138 'y+1/2, -x+3/4, -z+1/4'
139 '-y+1/4, x+1/2, -z+3/4'
140 '-y+3/4, x, -z+3/4'
141 '-y+3/4, x+1/2, -z+1/4'
142 'y, x+1/2, z+1/2'
143 'y+1/2, x, z+1/2'
144 'y+1/2, x+1/2, z'
145 '-x+1/4, z+1/2, -y+3/4'
146 '-x+3/4, z, -y+3/4'
147 '-x+3/4, z+1/2, -y+1/4'
148 '-x+1/4, -z+3/4, y+1/2'
149 '-x+3/4, -z+1/4, y+1/2'
150 '-x+3/4, -z+3/4, y'
151 'x, -z+3/4, -y+3/4'
152 'x+1/2, -z+1/4, -y+3/4'
153 'x+1/2, -z+3/4, -y+1/4'
154 'x, z+1/2, y+1/2'
155 'x+1/2, z, y+1/2'
156 'x+1/2, z+1/2, y'
157 'z, -x+3/4, -y+3/4'
158 'z+1/2, -x+1/4, -y+3/4'
159 'z+1/2, -x+3/4, -y+1/4'
160 '-z+1/4, -x+3/4, y+1/2'
161 '-z+3/4, -x+1/4, y+1/2'
162 '-z+3/4, -x+3/4, y'
163 '-z+1/4, x+1/2, -y+3/4'
164 '-z+3/4, x, -y+3/4'
165 '-z+3/4, x+1/2, -y+1/4'
166 'z, x+1/2, y+1/2'
167 'z+1/2, x, y+1/2'
168 'z+1/2, x+1/2, y'
169 '-y+1/4, z+1/2, -x+3/4'
170 '-y+3/4, z, -x+3/4'
171 '-y+3/4, z+1/2, -x+1/4'
172 'y, -z+3/4, -x+3/4'
173 'y+1/2, -z+1/4, -x+3/4'
174 'y+1/2, -z+3/4, -x+1/4'
175 '-y+1/4, -z+3/4, x+1/2'
176 '-y+3/4, -z+1/4, x+1/2'
177 '-y+3/4, -z+3/4, x'
178 'y, z+1/2, x+1/2'
179 'y+1/2, z, x+1/2'
180 'y+1/2, z+1/2, x'
181 '-x+1/4, -y+3/4, z+1/2'
182 '-x+3/4, -y+1/4, z+1/2'
183 '-x+3/4, -y+3/4, z'
184 '-x+1/4, y+1/2, -z+3/4'
185 '-x+3/4, y, -z+3/4'
186 '-x+3/4, y+1/2, -z+1/4'
187 'x, -y+3/4, -z+3/4'
188 'x+1/2, -y+1/4, -z+3/4'
189 'x+1/2, -y+3/4, -z+1/4'
190 'x, y+1/2, z+1/2'
191 'x+1/2, y, z+1/2'
192 'x+1/2, y+1/2, z'
loop_
_atom_site_aniso_label
_atom_site_aniso_type_symbol
_atom_site_aniso_U_11
_atom_site_aniso_U_22
_atom_site_aniso_U_33
_atom_site_aniso_U_12
_atom_site_aniso_U_13
_atom_site_aniso_U_23
O1 O2- 0.0199(12) 0.0235(19) 0.0199(12) -0.0055(10) -0.0025(14) -0.0055(10)
O2 O2- 0.0189(11) 0.0189(11) 0.0192(18) 0.0086(14) -0.0056(10) -0.0056(10)
O3 O2- 0.0225(19) 0.0207(12) 0.0207(12) 0.0022(11) 0.0022(11) 0.0074(14)
O4 O2- 0.0230(19) 0.0204(12) 0.0204(12) -0.0010(11) 0.0010(11) -0.0113(14)
Na1 Na1+ 0.049(6) 0.049(6) 0.049(6) 0.018(8) 0.018(8) 0.018(8)
Na2 Na1+ 0.051(15) 0.051(15) 0.051(15) 0.027(16) 0.027(16) 0.027(16)
Na3 Na1+ 0.051(15) 0.051(15) 0.051(15) 0.027(16) 0.027(16) 0.027(16)
Na4 Na1+ 0.022(12) 0.022(12) 0.022(12) 0.004(9) 0.004(9) 0.004(9)
Na5 Na1+ 0.012(5) 0.012(5) 0.012(5) 0.004(7) 0.004(7) 0.004(7)
Na6 Na1+ 0.15(6) 0.04(2) 0.06(3) 0.05(3) 0.01(3) 0.00(2)
Na7 Na1+ 0.15(6) 0.04(2) 0.06(3) 0.05(3) 0.01(3) 0.00(2)
loop_
_atom_site_label
_atom_site_type_symbol
_atom_site_symmetry_multiplicity
_atom_site_Wyckoff_symbol
_atom_site_fract_x
_atom_site_fract_y
_atom_site_fract_z
_atom_site_occupancy
_atom_site_attached_hydrogens
Si1 Si4+ 192 i -0.05419(3) 0.12481(3) 0.03595(3) 0.630 0
Al1 Al3+ 192 i -0.05419(3) 0.12481(3) 0.03595(3) 0.370 0
O1 O2- 96 h -0.10659(10) 0.0000 0.10659(10) 1 0
O2 O2- 96 g -0.00211(11) -0.00211(11) 0.14275(14) 1 0
O3 O2- 96 g -0.03316(15) 0.07405(11) 0.07405(11) 1 0
O4 O2- 96 g -0.06967(15) 0.07168(11) 0.17832(11) 1 0
Na1 Na1+ 16 c 0.0000 0.0000 0.0000 0.31 0
Na2 Na1+ 32 e 0.0489(12) 0.0489(12) 0.0489(12) 0.25 0
Na3 Na1+ 32 e 0.0591(6) 0.0591(6) 0.0591(6) 0.44 0
Na4 Na1+ 32 e 0.2279(16) 0.2279(16) 0.2279(16) 0.41 0
Na5 Na1+ 32 e 0.2342(14) 0.2342(14) 0.2342(14) 0.47 0
Na6 Na1+ 192 i 0.011(3) 0.0635(16) 0.4201(18) 0.06 0
Na7 Na1+ 96 g 0.042(5) 0.042(5) 0.414(3) 0.04 0
loop_
_atom_type_symbol
_atom_type_oxidation_number
Al3+ 3
Na1+ 1
O2- -2
Si4+ 4
