#------------------------------------------------------------------------------
#$Date: 2016-02-18 17:37:37 +0200 (Thu, 18 Feb 2016) $
#$Revision: 176729 $
#$URL: svn://www.crystallography.net/cod/cif/1/50/96/1509643.cif $
#------------------------------------------------------------------------------
#
# This file is available in the Crystallography Open Database (COD),
# http://www.crystallography.net/
#
# All data on this site have been placed in the public domain by the
# contributors.
#
data_1509643
loop_
_publ_author_name
'Park, J.Y.'
'Song, S.H.'
'Kim, U.S.'
'Kim, Y.'
_publ_section_title
;
 Two crystal structures of dehydrated calcium and silver exchanged zeolite
 A, Ag(12-2x) Ca(x)-A (x=2.5 and 5.0)
;
_journal_name_full
;
Daehan Hwahak Hwoejee (= Journal of the Korean Chemical Society)
;
_journal_page_first              452
_journal_page_last               458
_journal_volume                  33
_journal_year                    1989
_chemical_formula_sum            'Ag2 Al12 Ca5 O48 Si12'
_chemical_name_systematic        'Ag2 Ca5 Al12 Si12 O48'
_space_group_IT_number           221
_symmetry_space_group_name_Hall  '-P 4 2 3'
_symmetry_space_group_name_H-M   'P m -3 m'
_cell_angle_alpha                90
_cell_angle_beta                 90
_cell_angle_gamma                90
_cell_formula_units_Z            1
_cell_length_a                   12.287
_cell_length_b                   12.287
_cell_length_c                   12.287
_cell_volume                     1854.973
_citation_journal_id_ASTM        DHWHAB
_cod_data_source_file            silver2-3_1.cif
_cod_data_source_block           Ag2Al12Ca5O48Si12
_cod_database_code               1509643
loop_
_symmetry_equiv_pos_as_xyz
x,y,z
-y,x,z
-x,-y,z
y,-x,z
x,-y,-z
y,x,-z
-x,y,-z
-y,-x,-z
z,x,y
-x,z,y
-z,-x,y
x,-z,y
z,-x,-y
x,z,-y
-z,x,-y
-x,-z,-y
y,z,x
y,-z,-x
z,y,-x
-y,z,-x
-z,-y,-x
-y,-z,x
z,-y,x
-z,y,x
-x,-y,-z
y,-x,-z
x,y,-z
-y,x,-z
-x,y,z
-y,-x,z
x,-y,z
y,x,z
-z,-x,-y
x,-z,-y
z,x,-y
-x,z,-y
-z,x,y
-x,-z,y
z,-x,y
x,z,y
-y,-z,-x
-y,z,x
-z,-y,x
y,-z,x
z,y,x
y,z,-x
-z,y,-x
z,-y,-x
loop_
_atom_site_label
_atom_site_type_symbol
_atom_site_fract_x
_atom_site_fract_y
_atom_site_fract_z
_atom_site_occupancy
_atom_site_U_iso_or_equiv
Ca1 Ca+2 0.1696 0.1696 0.1696 0.635 0.0
O2 O-2 0 0.2845 0.2845 1 0.0
O3 O-2 0.1105 0.1105 0.3369 1 0.0
Si1 Si+4 0 0.1831 0.3715 0.5 0.0
Ag1 Ag+1 0.2023 0.2023 0.2023 0.245 0.0
Al1 Al+3 0 0.1831 0.3715 0.5 0.0
O1 O-2 0 0.2163 0.5 1 0.0
