#------------------------------------------------------------------------------
#$Date: 2016-02-18 17:37:37 +0200 (Thu, 18 Feb 2016) $
#$Revision: 176729 $
#$URL: svn://www.crystallography.net/cod/cif/1/50/99/1509994.cif $
#------------------------------------------------------------------------------
#
# This file is available in the Crystallography Open Database (COD),
# http://www.crystallography.net/
#
# All data on this site have been placed in the public domain by the
# contributors.
#
data_1509994
loop_
_publ_author_name
'Seff, K.'
'Kim, Y.'
_publ_section_title
;
 Silver ions in zeolite A are reduced by H2 only at high temperatures when
 8-rings are blocked by Cs+. Crystal structures of dehydrated Ag9 Cs3-A
 treated with H2 at 23, 310, and 470 C
;
_journal_name_full               'Bulletin of the Korean Chemical Society'
_journal_page_first              69
_journal_page_last               72
_journal_volume                  8
_journal_year                    1987
_chemical_formula_sum            'Ag9 Al12 Cs2.9 O48 Si12'
_chemical_name_systematic        'Ag9 Cs2.9 (Al12 Si12 O48)'
_space_group_IT_number           221
_symmetry_space_group_name_Hall  '-P 4 2 3'
_symmetry_space_group_name_H-M   'P m -3 m'
_cell_angle_alpha                90
_cell_angle_beta                 90
_cell_angle_gamma                90
_cell_formula_units_Z            1
_cell_length_a                   12.288
_cell_length_b                   12.288
_cell_length_c                   12.288
_cell_volume                     1855.426
_citation_journal_id_ASTM        BKCSDE
_cod_data_source_file            silver3-x_300.cif
_cod_data_source_block           Ag9Al12Cs2.9O48Si12
_cod_database_code               1509994
loop_
_symmetry_equiv_pos_as_xyz
x,y,z
-y,x,z
-x,-y,z
y,-x,z
x,-y,-z
y,x,-z
-x,y,-z
-y,-x,-z
z,x,y
-x,z,y
-z,-x,y
x,-z,y
z,-x,-y
x,z,-y
-z,x,-y
-x,-z,-y
y,z,x
y,-z,-x
z,y,-x
-y,z,-x
-z,-y,-x
-y,-z,x
z,-y,x
-z,y,x
-x,-y,-z
y,-x,-z
x,y,-z
-y,x,-z
-x,y,z
-y,-x,z
x,-y,z
y,x,z
-z,-x,-y
x,-z,-y
z,x,-y
-x,z,-y
-z,x,y
-x,-z,y
z,-x,y
x,z,y
-y,-z,-x
-y,z,x
-z,-y,x
y,-z,x
z,y,x
y,z,-x
-z,y,-x
z,-y,-x
loop_
_atom_site_label
_atom_site_type_symbol
_atom_site_fract_x
_atom_site_fract_y
_atom_site_fract_z
_atom_site_occupancy
_atom_site_U_iso_or_equiv
O1 O-2 0 0.219 0.5 1 0.0
Ag2 Ag+1 0 0 0.172 0.167 0.0
Ag1 Ag+1 0.1863 0.1863 0.1863 1 0.0
O2 O-2 0 0.2973 0.2973 1 0.0
Al1 Al+3 0 0.1841 0.3705 0.5 0.0
O3 O-2 0.1117 0.1117 0.3362 1 0.0
Si1 Si+4 0 0.1841 0.3705 0.5 0.0
Cs1 Cs+1 0 0.5 0.5 0.967 0.0
