#------------------------------------------------------------------------------
#$Date: 2016-02-18 17:37:37 +0200 (Thu, 18 Feb 2016) $
#$Revision: 176729 $
#$URL: svn://www.crystallography.net/cod/cif/1/50/96/1509624.cif $
#------------------------------------------------------------------------------
#
# This file is available in the Crystallography Open Database (COD),
# http://www.crystallography.net/
#
# All data on this site have been placed in the public domain by the
# contributors.
#
data_1509624
loop_
_publ_author_name
'Kim, Y.'
'Seff, K.'
_publ_section_title
;
 The crystal structure of dehydrated fully silver(1+) ionexchanged zeolite
 A reduced by hydrogen and reoxidized by oxygen, both at 330 degree C. The
 loss of long range order and its subsequent return
;
_journal_name_full               'Journal of Physical Chemistry'
_journal_page_first              921
_journal_page_last               924
_journal_volume                  82
_journal_year                    1978
_chemical_formula_sum            'Ag11.54 Al12 O48 Si12'
_chemical_name_systematic        'Ag11.54 Si12 Al12 O48'
_space_group_IT_number           221
_symmetry_space_group_name_Hall  '-P 4 2 3'
_symmetry_space_group_name_H-M   'P m -3 m'
_cell_angle_alpha                90
_cell_angle_beta                 90
_cell_angle_gamma                90
_cell_formula_units_Z            1
_cell_length_a                   12.3045
_cell_length_b                   12.3045
_cell_length_c                   12.3045
_cell_volume                     1862.910
_citation_journal_id_ASTM        JPCHAX
_cod_data_source_file            silver1-2_641.cif
_cod_data_source_block           Ag11.54Al12O48Si12
_cod_original_cell_volume        1862.91
_cod_database_code               1509624
loop_
_symmetry_equiv_pos_as_xyz
x,y,z
-y,x,z
-x,-y,z
y,-x,z
x,-y,-z
y,x,-z
-x,y,-z
-y,-x,-z
z,x,y
-x,z,y
-z,-x,y
x,-z,y
z,-x,-y
x,z,-y
-z,x,-y
-x,-z,-y
y,z,x
y,-z,-x
z,y,-x
-y,z,-x
-z,-y,-x
-y,-z,x
z,-y,x
-z,y,x
-x,-y,-z
y,-x,-z
x,y,-z
-y,x,-z
-x,y,z
-y,-x,z
x,-y,z
y,x,z
-z,-x,-y
x,-z,-y
z,x,-y
-x,z,-y
-z,x,y
-x,-z,y
z,-x,y
x,z,y
-y,-z,-x
-y,z,x
-z,-y,x
y,-z,x
z,y,x
y,z,-x
-z,y,-x
z,-y,-x
loop_
_atom_site_label
_atom_site_type_symbol
_atom_site_fract_x
_atom_site_fract_y
_atom_site_fract_z
_atom_site_occupancy
_atom_site_U_iso_or_equiv
Al1 Al+3 0 0.1829 0.372 0.5 0.0
Ag1 Ag+1 0.1942 0.1942 0.1942 1 0.0
O1 O-2 0 0.2201 0.5 1 0.0
Ag2 Ag+1 0 0 0.1732 0.09 0.0
Ag3 Ag+1 0 0.4258 0.4258 0.25 0.0
O2 O-2 0 0.2933 0.2933 1 0.0
O3 O-2 0.1103 0.1103 0.3423 1 0.0
Si1 Si+4 0 0.1829 0.372 0.5 0.0
