#------------------------------------------------------------------------------
#$Date: 2016-02-18 17:37:37 +0200 (Thu, 18 Feb 2016) $
#$Revision: 176729 $
#$URL: svn://www.crystallography.net/cod/cif/1/50/98/1509899.cif $
#------------------------------------------------------------------------------
#
# This file is available in the Crystallography Open Database (COD),
# http://www.crystallography.net/
#
# All data on this site have been placed in the public domain by the
# contributors.
#
data_1509899
loop_
_publ_author_name
'Kim, Y.'
'Seff, K.'
_publ_section_title
;
 Crystal structure of dehydrated cesium and silver exchanged zeoliteA,
 Cs7.3 Ag4.7 - A
;
_journal_name_full               'Bulletin of the Korean Chemical Society'
_journal_page_first              117
_journal_page_last               121
_journal_volume                  5
_journal_year                    1984
_chemical_formula_sum            'Ag4.68 Al12 Cs7.32 O48 Si12'
_chemical_name_systematic        'Cs7.32 Ag4.68 (Al12 Si12 O48)'
_space_group_IT_number           221
_symmetry_space_group_name_Hall  '-P 4 2 3'
_symmetry_space_group_name_H-M   'P m -3 m'
_cell_angle_alpha                90
_cell_angle_beta                 90
_cell_angle_gamma                90
_cell_formula_units_Z            1
_cell_length_a                   12.282
_cell_length_b                   12.282
_cell_length_c                   12.282
_cell_volume                     1852.709
_citation_journal_id_ASTM        BKCSDE
_cod_data_source_file            silver3-x_184.cif
_cod_data_source_block           Ag4.68Al12Cs7.32O48Si12
_cod_database_code               1509899
loop_
_symmetry_equiv_pos_as_xyz
x,y,z
-y,x,z
-x,-y,z
y,-x,z
x,-y,-z
y,x,-z
-x,y,-z
-y,-x,-z
z,x,y
-x,z,y
-z,-x,y
x,-z,y
z,-x,-y
x,z,-y
-z,x,-y
-x,-z,-y
y,z,x
y,-z,-x
z,y,-x
-y,z,-x
-z,-y,-x
-y,-z,x
z,-y,x
-z,y,x
-x,-y,-z
y,-x,-z
x,y,-z
-y,x,-z
-x,y,z
-y,-x,z
x,-y,z
y,x,z
-z,-x,-y
x,-z,-y
z,x,-y
-x,z,-y
-z,x,y
-x,-z,y
z,-x,y
x,z,y
-y,-z,-x
-y,z,x
-z,-y,x
y,-z,x
z,y,x
y,z,-x
-z,y,-x
z,-y,-x
loop_
_atom_site_label
_atom_site_type_symbol
_atom_site_fract_x
_atom_site_fract_y
_atom_site_fract_z
_atom_site_occupancy
_atom_site_U_iso_or_equiv
O2 O-2 0 0.2943 0.2943 1 0.0
Ag1 Ag+1 0.1938 0.1938 0.1938 0.46 0.0
Cs1 Cs+1 0.2714 0.2714 0.2714 0.415 0.0
Al1 Al+3 0 0.1837 0.3729 0.5 0.0
O3 O-2 0.1134 0.1134 0.3425 1 0.0
Ag2 Ag+1 0.1674 0.1674 0.5 0.0833 0.0
Cs3 Cs+1 0.0893 0.0893 0.0893 0.125 0.0
O1 O-2 0 0.2252 0.5 1 0.0
Cs2 Cs+1 0 0.5 0.5 1 0.0
Si1 Si+4 0 0.1837 0.3729 0.5 0.0
