#------------------------------------------------------------------------------
#$Date: 2016-02-18 17:37:37 +0200 (Thu, 18 Feb 2016) $
#$Revision: 176729 $
#$URL: svn://www.crystallography.net/cod/cif/1/51/04/1510450.cif $
#------------------------------------------------------------------------------
#
# This file is available in the Crystallography Open Database (COD),
# http://www.crystallography.net/
#
# All data on this site have been placed in the public domain by the
# contributors.
#
data_1510450
loop_
_publ_author_name
'Figulla-Kroschel, C.'
'Jansen, M.'
_publ_section_title
;
 Darstellung, Kristallstrukturen und Eigenschaften von Ln4 Au2 O9 (Ln= Nd,
 Sm, Eu)
;
_journal_name_full
'Zeitschrift fuer Anorganische und Allgemeine Chemie'
_journal_page_first              2178
_journal_page_last               2184
_journal_paper_doi
10.1002/1521-3749(200010)626:10<2178::AID-ZAAC2178>3.0.CO;2-#
_journal_volume                  626
_journal_year                    2000
_chemical_formula_sum            'Au2 Nd4 O9'
_chemical_name_systematic        'Nd4 (Au2 O9)'
_space_group_IT_number           60
_symmetry_space_group_name_Hall  '-P 2n 2ab'
_symmetry_space_group_name_H-M   'P b c n'
_cell_angle_alpha                90
_cell_angle_beta                 90
_cell_angle_gamma                90
_cell_formula_units_Z            4
_cell_length_a                   11.9813
_cell_length_b                   6.1474
_cell_length_c                   11.9641
_cell_volume                     881.202
_citation_journal_id_ASTM        ZAACAB
_cod_data_source_file            gold_541.cif
_cod_data_source_block           Au2Nd4O9
_cod_database_code               1510450
loop_
_symmetry_equiv_pos_as_xyz
x,y,z
-x+1/2,-y+1/2,z+1/2
x+1/2,-y+1/2,-z
-x,y,-z+1/2
-x,-y,-z
x-1/2,y-1/2,-z-1/2
-x-1/2,y-1/2,z
x,-y,z-1/2
loop_
_atom_site_label
_atom_site_type_symbol
_atom_site_fract_x
_atom_site_fract_y
_atom_site_fract_z
_atom_site_occupancy
_atom_site_U_iso_or_equiv
O4 O-2 0.33618 0.4444 0.35589 1 0.0
Au1 Au+3 0.2296 0.0803 0.0114 1 0.0
O5 O-2 0.11777 0.44409 0.4481 1 0.0
O3 O-2 0.08088 0.1118 0.0872 1 0.0
Nd2 Nd+3 0.491 0.2457 0.0879 1 0.0
Nd1 Nd+3 0.1562 0.3003 0.2639 1 0.0
O1 O-2 0.5 0.0216 0.25 1 0.0
O2 O-2 0.3009 0.1207 0.15658 1 0.0
