#------------------------------------------------------------------------------
#$Date: 2016-02-14 16:26:36 +0200 (Sun, 14 Feb 2016) $
#$Revision: 176435 $
#$URL: svn://www.crystallography.net/cod/cif/1/51/08/1510872.cif $
#------------------------------------------------------------------------------
#
# This file is available in the Crystallography Open Database (COD),
# http://www.crystallography.net/
#
# All data on this site have been placed in the public domain by the
# contributors.
#
data_1510872
loop_
_publ_author_name
'Ilyukhin, A.B.'
'Dzhurinskii, B.F.'
_publ_section_title
;
 Crystal structures of double borates Ln Ba3 (B O3)3 (Ln= Dy, Ho,T m, Yb,
 Lu)
;
_journal_name_full               'Zhurnal Neorganicheskoi Khimii'
_journal_page_first              1625
_journal_page_last               1630
_journal_volume                  38
_journal_year                    1993
_chemical_formula_sum            'B3 Ba3 Ho O9'
_chemical_name_systematic        'Ho Ba3 (B O3)3'
_space_group_IT_number           185
_symmetry_space_group_name_Hall  'P 6c -2'
_symmetry_space_group_name_H-M   'P 63 c m'
_cell_angle_alpha                90
_cell_angle_beta                 90
_cell_angle_gamma                120
_cell_formula_units_Z            6
_cell_length_a                   9.425
_cell_length_b                   9.425
_cell_length_c                   17.599
_cell_volume                     1353.884
_citation_journal_id_ASTM        ZNOKAQ
_cod_data_source_file            boron_385.cif
_cod_data_source_block           B3Ba3Ho1O9
_cod_original_formula_sum        'B3 Ba3 Ho1 O9'
_cod_database_code               1510872
loop_
_symmetry_equiv_pos_as_xyz
x,y,z
x-y,x,z+1/2
-y,x-y,z
-x,-y,z+1/2
-x+y,-x,z
y,-x+y,z+1/2
y,x,z
-x+y,y,z+1/2
-x,-x+y,z
-y,-x,z+1/2
x-y,-y,z
x,x-y,z+1/2
loop_
_atom_site_label
_atom_site_type_symbol
_atom_site_fract_x
_atom_site_fract_y
_atom_site_fract_z
_atom_site_occupancy
_atom_site_U_iso_or_equiv
Ho1 Ho+3 0 0 0 1 0.0
O6 O-2 0.197 0.197 0.936 1 0.0
B2 B+3 0.327 0.327 0.743 1 0.0
Ba3 Ba+2 0.3434 0.3434 0.1287 1 0.0
O2 O-2 0.328 0.473 0.5734 1 0.0
Ba2 Ba+2 0.6667 0.3333 0.2709 1 0.0
O1 O-2 0.194 0.194 0.58 1 0.0
O5 O-2 0.338 0.489 0.9139 1 0.0
O4 O-2 0.477 0.477 0.744 1 0.0
Ba4 Ba+2 0.3222 0.3222 0.3682 1 0.0
B3 B+3 0.35 0.35 0.931 1 0.0
O3 O-2 0.187 0.336 0.744 1 0.0
Ho2 Ho+3 0.6667 0.3333 -0.0048 1 0.0
B1 B+3 0.33 0.33 0.577 1 0.0
Ba1 Ba+2 0 0 0.2215 1 0.0
