#------------------------------------------------------------------------------
#$Date: 2016-02-14 16:26:36 +0200 (Sun, 14 Feb 2016) $
#$Revision: 176435 $
#$URL: svn://www.crystallography.net/cod/cif/1/51/02/1510209.cif $
#------------------------------------------------------------------------------
#
# This file is available in the Crystallography Open Database (COD),
# http://www.crystallography.net/
#
# All data on this site have been placed in the public domain by the
# contributors.
#
data_1510209
loop_
_publ_author_name
'Feldmann, C.'
'Jansen, M.'
_publ_section_title
;
 Zur Kenntnis neuer ternaerer Oxide mit anionischem Gold
;
_journal_name_full
'Zeitschrift fuer Anorganische und Allgemeine Chemie'
_journal_page_first              201
_journal_page_last               206
_journal_paper_doi               10.1002/zaac.19956210207
_journal_volume                  621
_journal_year                    1995
_chemical_formula_sum            'Au K3 O'
_chemical_name_systematic        'K3 Au O'
_space_group_IT_number           221
_symmetry_space_group_name_Hall  '-P 4 2 3'
_symmetry_space_group_name_H-M   'P m -3 m'
_cell_angle_alpha                90
_cell_angle_beta                 90
_cell_angle_gamma                90
_cell_formula_units_Z            1
_cell_length_a                   5.24
_cell_length_b                   5.24
_cell_length_c                   5.24
_cell_volume                     143.878
_citation_journal_id_ASTM        ZAACAB
_cod_data_source_file            gold_268.cif
_cod_data_source_block           Au1K3O1
_cod_original_cell_volume        143.8778
_cod_original_formula_sum        'Au1 K3 O1'
_cod_database_code               1510209
loop_
_symmetry_equiv_pos_as_xyz
x,y,z
-y,x,z
-x,-y,z
y,-x,z
x,-y,-z
y,x,-z
-x,y,-z
-y,-x,-z
z,x,y
-x,z,y
-z,-x,y
x,-z,y
z,-x,-y
x,z,-y
-z,x,-y
-x,-z,-y
y,z,x
y,-z,-x
z,y,-x
-y,z,-x
-z,-y,-x
-y,-z,x
z,-y,x
-z,y,x
-x,-y,-z
y,-x,-z
x,y,-z
-y,x,-z
-x,y,z
-y,-x,z
x,-y,z
y,x,z
-z,-x,-y
x,-z,-y
z,x,-y
-x,z,-y
-z,x,y
-x,-z,y
z,-x,y
x,z,y
-y,-z,-x
-y,z,x
-z,-y,x
y,-z,x
z,y,x
y,z,-x
-z,y,-x
z,-y,-x
loop_
_atom_site_label
_atom_site_type_symbol
_atom_site_fract_x
_atom_site_fract_y
_atom_site_fract_z
_atom_site_occupancy
_atom_site_U_iso_or_equiv
Au1 Au-1 0 0 0 1 0.0
O1 O-2 0.5 0.5 0.5 1 0.0
K1 K+1 0.5 0.5 0 1 0.0
