#------------------------------------------------------------------------------
#$Date: 2016-02-14 16:26:36 +0200 (Sun, 14 Feb 2016) $
#$Revision: 176435 $
#$URL: svn://www.crystallography.net/cod/cif/1/51/08/1510879.cif $
#------------------------------------------------------------------------------
#
# This file is available in the Crystallography Open Database (COD),
# http://www.crystallography.net/
#
# All data on this site have been placed in the public domain by the
# contributors.
#
data_1510879
loop_
_publ_author_name
'Ilyukhin, A.B.'
'Dzhurinskii, B.F.'
_publ_section_title
;
 Crystal structures of double borates LnBa3(BO3)3(Ln=Dy,Ho,Tm,Yb,Lu)
;
_journal_name_full               'Zhurnal Neorganicheskoi Khimii'
_journal_page_first              1625
_journal_page_last               1630
_journal_volume                  38
_journal_year                    1993
_chemical_formula_sum            'B3 Ba3 O9 Yb'
_chemical_name_systematic        'Yb Ba3 (B O3)3'
_space_group_IT_number           185
_symmetry_space_group_name_Hall  'P 6c -2'
_symmetry_space_group_name_H-M   'P 63 c m'
_cell_angle_alpha                90
_cell_angle_beta                 90
_cell_angle_gamma                120
_cell_formula_units_Z            6
_cell_length_a                   9.383
_cell_length_b                   9.383
_cell_length_c                   17.441
_cell_volume                     1329.797
_citation_journal_id_ASTM        ZNOKAQ
_cod_data_source_file            boron_392.cif
_cod_data_source_block           B3Ba3O9Yb1
_cod_original_formula_sum        'B3 Ba3 O9 Yb1'
_cod_database_code               1510879
loop_
_symmetry_equiv_pos_as_xyz
x,y,z
x-y,x,z+1/2
-y,x-y,z
-x,-y,z+1/2
-x+y,-x,z
y,-x+y,z+1/2
y,x,z
-x+y,y,z+1/2
-x,-x+y,z
-y,-x,z+1/2
x-y,-y,z
x,x-y,z+1/2
loop_
_atom_site_label
_atom_site_type_symbol
_atom_site_fract_x
_atom_site_fract_y
_atom_site_fract_z
_atom_site_occupancy
_atom_site_U_iso_or_equiv
B3 B+3 0.335 0.335 0.918 1 0.0
B2 B+3 0.346 0.346 0.741 1 0.0
Ba1 Ba+2 0 0 0.22 1 0.0
O6 O-2 0.192 0.192 0.933 1 0.0
Yb2 Yb+3 0.6667 0.3333 -0.0045 1 0.0
B1 B+3 0.316 0.316 0.567 1 0.0
Ba3 Ba+2 0.3414 0.3414 0.1255 1 0.0
O4 O-2 0.479 0.479 0.748 1 0.0
Ba4 Ba+2 0.3221 0.3221 0.3678 1 0.0
O1 O-2 0.179 0.179 0.583 1 0.0
O2 O-2 0.339 0.485 0.5739 1 0.0
Yb1 Yb+3 0 0 0 1 0.0
O5 O-2 0.351 0.486 0.9197 1 0.0
Ba2 Ba+2 0.6667 0.3333 0.2696 1 0.0
O3 O-2 0.183 0.332 0.748 1 0.0
