#------------------------------------------------------------------------------
#$Date: 2016-02-14 06:40:26 +0200 (Sun, 14 Feb 2016) $
#$Revision: 176432 $
#$URL: svn://www.crystallography.net/cod/cif/1/51/12/1511288.cif $
#------------------------------------------------------------------------------
#
# This file is available in the Crystallography Open Database (COD),
# http://www.crystallography.net/
#
# All data on this site have been placed in the public domain by the
# contributors.
#
data_1511288
loop_
_publ_author_name
'Zaslavskii, A.I.'
'Zvinchuk, R.A.'
_publ_section_title
;
 About the interaction of Ta2 O5 with B2 O3 and the structure of Ta B O4
;
_journal_name_full               'Doklady Akademii Nauk SSSR'
_journal_page_first              781
_journal_page_last               783
_journal_volume                  90
_journal_year                    1953
_chemical_formula_sum            'B O4 Ta'
_chemical_name_systematic        'Ta B O4'
_space_group_IT_number           141
_symmetry_space_group_name_Hall  'I 4bw 2bw -1bw'
_symmetry_space_group_name_H-M   'I 41/a m d :1'
_cell_angle_alpha                90
_cell_angle_beta                 90
_cell_angle_gamma                90
_cell_formula_units_Z            4
_cell_length_a                   6.213
_cell_length_b                   6.213
_cell_length_c                   5.486
_cell_volume                     211.767
_citation_journal_id_ASTM        DANKAS
_cod_data_source_file            boron0-1_417.cif
_cod_data_source_block           B1O4Ta1
_cod_original_cell_volume        211.7671
_cod_original_sg_symbol_Hall     '-I 4bd 2 (x+1/2,y+1/4,z+1/8)'
_cod_original_formula_sum        'B1 O4 Ta1'
_cod_database_code               1511288
loop_
_symmetry_equiv_pos_as_xyz
x,y,z
-y,x+1/2,z+1/4
-x+1/2,-y+1/2,z+1/2
y+1/2,-x,z+3/4
x,-y+1/2,-z+1/4
y+1/2,x+1/2,-z+1/2
-x+1/2,y,-z+3/4
-y,-x,-z
-x,-y+1/2,-z+1/4
y,-x,-z
x-1/2,y,-z-1/4
-y-1/2,x+1/2,-z-1/2
-x,y,z
-y-1/2,-x,z-1/4
x-1/2,-y+1/2,z-1/2
y,x+1/2,z+1/4
x+1/2,y+1/2,z+1/2
-y+1/2,x+1,z+3/4
-x+1,-y+1,z+1
y+1,-x+1/2,z+5/4
x+1/2,-y+1,-z+3/4
y+1,x+1,-z+1
-x+1,y+1/2,-z+5/4
-y+1/2,-x+1/2,-z+1/2
-x+1/2,-y+1,-z+3/4
y+1/2,-x+1/2,-z+1/2
x,y+1/2,-z+1/4
-y,x+1,-z
-x+1/2,y+1/2,z+1/2
-y,-x+1/2,z+1/4
x,-y+1,z
y+1/2,x+1,z+3/4
loop_
_atom_site_label
_atom_site_type_symbol
_atom_site_fract_x
_atom_site_fract_y
_atom_site_fract_z
_atom_site_occupancy
_atom_site_U_iso_or_equiv
O1 O-2 0 0.17 0.32 1 0.0
Ta1 Ta+5 0 0 0 1 0.0
B1 B+3 0 0 0.5 1 0.0
