#------------------------------------------------------------------------------
#$Date: 2016-02-14 16:26:36 +0200 (Sun, 14 Feb 2016) $
#$Revision: 176435 $
#$URL: svn://www.crystallography.net/cod/cif/1/51/13/1511387.cif $
#------------------------------------------------------------------------------
#
# This file is available in the Crystallography Open Database (COD),
# http://www.crystallography.net/
#
# All data on this site have been placed in the public domain by the
# contributors.
#
data_1511387
loop_
_publ_author_name
'Reading, J.'
'Weller, M.T.'
_publ_section_title
;
 Powder neutron diffraction structural analysis of the lanthanide barium
 copper oxyborates, Ln Ba Cu O2 B O3 (Ln = La, Pr and Nd)
;
_journal_name_full               'Physica C (Amsterdam)'
_journal_page_first              31
_journal_page_last               36
_journal_paper_doi               10.1016/S0921-4534(99)00521-3
_journal_volume                  328
_journal_year                    1999
_chemical_formula_sum            'B0.94 Ba Cu Nd O4.88'
_chemical_name_systematic        'Nd Ba Cu O2.06 (B O3)0.94'
_space_group_IT_number           100
_symmetry_space_group_name_Hall  'P 4 -2ab'
_symmetry_space_group_name_H-M   'P 4 b m'
_cell_angle_alpha                90
_cell_angle_beta                 90
_cell_angle_gamma                90
_cell_formula_units_Z            2
_cell_length_a                   5.5244
_cell_length_b                   5.5244
_cell_length_c                   7.4416
_cell_volume                     227.110
_citation_journal_id_ASTM        PHYCE6
_cod_data_source_file            boron0-1_53.cif
_cod_data_source_block           B0.94Ba1Cu1Nd1O4.88
_cod_original_cell_volume        227.1102
_cod_original_formula_sum        'B0.94 Ba1 Cu1 Nd1 O4.88'
_cod_database_code               1511387
loop_
_symmetry_equiv_pos_as_xyz
x,y,z
-y,x,z
-x,-y,z
y,-x,z
-x+1/2,y+1/2,z
-y+1/2,-x+1/2,z
x+1/2,-y+1/2,z
y+1/2,x+1/2,z
loop_
_atom_site_label
_atom_site_type_symbol
_atom_site_fract_x
_atom_site_fract_y
_atom_site_fract_z
_atom_site_occupancy
_atom_site_U_iso_or_equiv
Nd1 Nd+3 0 0 0 1 0.0
Cu1 Cu+1 0.5 0 0.7757 1 0.0
O2 O-2 0.5 0 0.4547 1 0.0
Ba1 Ba+2 0 0 0.507 1 0.0
O1 O-2 0.2505 0.7505 0.7954 1 0.0
B1 B+3 0.5 0 0.2676 0.94 0.0
O3 O-2 0.1555 0.6555 0.1794 0.94 0.0
