#------------------------------------------------------------------------------
#$Date: 2016-02-18 17:37:37 +0200 (Thu, 18 Feb 2016) $
#$Revision: 176729 $
#$URL: svn://www.crystallography.net/cod/cif/1/51/25/1512557.cif $
#------------------------------------------------------------------------------
#
# This file is available in the Crystallography Open Database (COD),
# http://www.crystallography.net/
#
# All data on this site have been placed in the public domain by the
# contributors.
#
data_1512557
loop_
_publ_author_name
'Rothkirch, Andr\'e'
'Gatta, G. Diego'
'Meyer, Mathias'
'Merkel, S\'ebastien'
'Merlini, Marco'
'Liermann, Hanns-Peter'
_publ_section_title
;
 Single-crystal diffraction at the Extreme Conditions beamline P02.2:
 procedure for collecting and analyzing high-pressure single-crystal data
;
_journal_coeditor_code           FV5010
_journal_issue                   5
_journal_name_full               'Journal of Synchrotron Radiation'
_journal_page_first              711
_journal_page_last               720
_journal_paper_doi               10.1107/S0909049513018621
_journal_volume                  20
_journal_year                    2013
_chemical_formula_sum            'Al2.5 B0.5 O4.5'
_chemical_formula_weight         144.9
_chemical_name_systematic        ' ?'
_space_group_IT_number           36
_symmetry_cell_setting           orthorhombic
_symmetry_space_group_name_Hall  'C 2c -2'
_symmetry_space_group_name_H-M   'C m c 21'
_cell_angle_alpha                90
_cell_angle_beta                 90
_cell_angle_gamma                90
_cell_formula_units_Z            8
_cell_length_a                   5.5494(15)
_cell_length_b                   14.350(6)
_cell_length_c                   7.481(2)
_cell_measurement_temperature    293
_cell_volume                     595.7(3)
_diffrn_ambient_temperature      293
_diffrn_measured_fraction_theta_full 0.54
_diffrn_measured_fraction_theta_max 0.41
_diffrn_radiation_type           X-ray
_diffrn_radiation_wavelength     0.28988
_diffrn_reflns_av_R_equivalents  0.051
_diffrn_reflns_av_sigmaI/netI    0.1179
_diffrn_reflns_limit_h_max       7
_diffrn_reflns_limit_h_min       -7
_diffrn_reflns_limit_k_max       12
_diffrn_reflns_limit_k_min       -16
_diffrn_reflns_limit_l_max       9
_diffrn_reflns_limit_l_min       -8
_diffrn_reflns_number            449
_diffrn_reflns_theta_full        9.84
_diffrn_reflns_theta_max         12.22
_diffrn_reflns_theta_min         1.6
_exptl_crystal_density_diffrn    3.2291
_exptl_crystal_F_000             568
_refine_diff_density_max         0.86
_refine_diff_density_min         -0.78
_refine_ls_extinction_method     none
_refine_ls_goodness_of_fit_ref   1.26
_refine_ls_number_constraints    0
_refine_ls_number_parameters     30
_refine_ls_number_reflns         341
_refine_ls_number_restraints     3
_refine_ls_R_factor_all          0.0891
_refine_ls_R_factor_gt           0.0581
_refine_ls_shift/su_max          0.0464
_refine_ls_shift/su_mean         0.0133
_refine_ls_structure_factor_coef F
_refine_ls_weighting_details     w=1/(\s^2^(F)+0.0001F^2^)
_refine_ls_weighting_scheme      sigma
_refine_ls_wR_factor_gt          0.0633
_refine_ls_wR_factor_ref         0.0806
_reflns_number_gt                223
_reflns_number_total             341
_reflns_threshold_expression     I>3\s(I)
_cod_data_source_file            fv5010.cif
_cod_data_source_block           I
_cod_database_code               1512557
loop_
_symmetry_equiv_pos_site_id
_symmetry_equiv_pos_as_xyz
1 x,y,z
2 -x,-y,z+1/2
3 x,-y,z+1/2
4 -x,y,z
5 x+1/2,y+1/2,z
6 -x+1/2,-y+1/2,z+1/2
7 x+1/2,-y+1/2,z+1/2
8 -x+1/2,y+1/2,z
loop_
_atom_site_type_symbol
_atom_site_label
_atom_site_fract_x
_atom_site_fract_y
_atom_site_fract_z
_atom_site_U_iso_or_equiv
_atom_site_adp_type
_atom_site_calc_flag
_atom_site_occupancy
_atom_site_symmetry_multiplicity
Al Al1 0.2510(6) 0.1172(4) 0.33664 0.0111(6) Uiso d 1 8
Al Al2 0 0.2560(5) 0.5196(11) 0.0111(6) Uiso d 1 4
Al Al3 0 0.4454(5) 0.5296(13) 0.0111(6) Uiso d 1 4
Al Al4 0 0.3018(6) 0.1671(12) 0.0111(6) Uiso d 1 4
B B1 0 0.0167(19) 0.060(2) 0.012(5) Uiso d 1 4
O O1 0 0.3241(14) 0.710(2) 0.0161(11) Uiso d 1 4
O O2 0.2528(15) 0.1877(9) 0.5402(17) 0.0161(11) Uiso d 1 8
O O3 0 0.4528(12) 0.909(2) 0.0161(11) Uiso d 1 4
O O4 0 0.0424(12) 0.417(2) 0.0161(11) Uiso d 1 4
O O5 0 0.3544(15) 0.369(2) 0.0161(11) Uiso d 1 4
O O6 0 0.1925(15) 0.262(2) 0.0161(11) Uiso d 1 4
O O7 0.2141(14) 0.0472(9) 0.1317(18) 0.0161(11) Uiso d 1 8
loop_
_atom_type_symbol
_atom_type_scat_Cromer_Mann_a1
_atom_type_scat_Cromer_Mann_a2
_atom_type_scat_Cromer_Mann_a3
_atom_type_scat_Cromer_Mann_a4
_atom_type_scat_Cromer_Mann_b1
_atom_type_scat_Cromer_Mann_b2
_atom_type_scat_Cromer_Mann_b3
_atom_type_scat_Cromer_Mann_b4
_atom_type_scat_Cromer_Mann_c
_atom_type_scat_dispersion_real
_atom_type_scat_dispersion_imag
_atom_type_scat_source
Al 6.4202 1.9002 1.5936 1.9646 3.0387 0.7426 31.547199 85.0886 1.1151 0.0052
0.0077 'International Tables Vol C tables 4.2.6.8 and 6.1.1.4'
B 2.0545 1.3326 1.0979 0.7068 23.2185 1.021 60.3498 0.1403 -0.1932 -0.0008
0.0001 'International Tables Vol C tables 4.2.6.8 and 6.1.1.4'
O 3.0485 2.2868 1.5463 0.867 13.2771 5.7011 0.3239 32.908901 0.2508 -0.0009
0.0008 'International Tables Vol C tables 4.2.6.8 and 6.1.1.4'
loop_
_geom_bond_atom_site_label_1
_geom_bond_atom_site_label_2
_geom_bond_site_symmetry_2
_geom_bond_distance
Al1 Al1 4_555 2.785(5)
Al1 Al1 4_655 2.764(5)
Al1 Al2 . 2.789(8)
Al1 Al2 6_554 3.294(8)
Al1 Al3 5_545 3.174(9)
Al1 Al3 6_554 2.827(8)
Al1 Al4 . 3.251(9)
Al1 Al4 6_555 3.061(9)
Al1 O1 6_554 1.874(13)
Al1 O2 . 1.828(14)
Al1 O3 6_554 1.792(12)
Al1 O4 . 1.858(12)
Al1 O6 . 1.848(14)
Al1 O7 . 1.844(14)
Al2 Al3 . 2.719(11)
Al2 Al4 . 2.718(12)
Al2 Al4 6_455 3.099(6)
Al2 Al4 6_555 3.099(6)
Al2 O1 . 1.73(2)
Al2 O2 . 1.718(11)
Al2 O2 4_555 1.718(11)
Al2 O5 . 1.81(2)
Al3 Al4 . 3.405(13)
Al3 O3 2_564 1.72(2)
Al3 O5 . 1.77(2)
Al3 O7 6_555 1.764(10)
Al3 O7 7_455 1.764(10)
Al4 O2 6_554 1.675(11)
Al4 O2 7_454 1.675(11)
Al4 O5 . 1.689(19)
Al4 O6 . 1.72(2)
B1 O4 2_554 1.36(3)
B1 O7 . 1.376(15)
B1 O7 4_555 1.376(15)
loop_
_refln_index_h
_refln_index_k
_refln_index_l
_refln_observed_status
_refln_F_squared_meas
_refln_F_squared_calc
0 2 -3 o 1812.85 2573.96
0 2 -2 o 2049.74 2054.89
0 2 -1 o 13799.20 14306.80
0 2 2 o 1750.54 2057.27
0 2 3 o 2367.14 2570.67
0 4 -5 o 1064.96 1245.16
0 4 -4 o 4699.55 4324.17
0 4 -3 o 18207.60 18154.60
0 4 2 o 20211.30 18475.60
0 4 3 o 18598.10 18155.00
0 4 4 o 4286.53 4323.22
0 4 5 o 999.66 1245.34
0 4 6 o 716.78 944.56
0 6 -7 o 3796.14 3996.82
0 6 -6 o 777.15 799.68
0 6 -5 o 5449.15 5072.81
0 6 -4 o 738.95 712.21
0 6 -3 o 2451.86 2459.90
0 6 3 o 2320.55 2460.82
0 6 4 o 733.82 713.54
0 6 5 o 4333.66 5069.84
0 6 6 o 678.44 796.72
0 6 7 o 4163.33 3996.02
0 6 8 < 216.18 192.95
0 8 -8 o 2263.72 2662.94
0 8 -7 o 534.55 489.61
0 8 -6 o 1252.35 1208.26
0 8 -5 o 460.41 492.99
0 8 -4 o 3166.49 3402.30
0 8 -3 o 4165.40 3831.64
0 8 4 o 2873.03 3403.43
0 8 5 o 516.31 493.12
0 8 6 o 1187.26 1208.08
0 8 7 < 376.00 489.49
0 10 -7 o 746.10 934.33
0 10 -6 < 316.45 321.66
0 10 -5 o 746.01 695.53
0 10 -4 < 74.04 61.42
0 10 6 < 333.52 322.51
0 10 7 o 913.42 933.46
0 12 -6 < 414.08 564.77
0 12 -5 o 1597.78 1368.64
0 12 -4 o 2675.34 2697.11
0 14 -5 < 295.09 393.22
1 1 -2 o 234.83 288.29
1 1 -1 o 4841.30 5132.57
1 1 1 o 4762.40 5131.90
1 1 2 o 267.89 286.92
1 3 -5 < -4.35 9.69
1 3 -4 o 3161.89 3107.20
1 3 -3 o 463.92 543.82
1 3 -2 o 948.78 1070.71
1 3 -1 o 196.65 223.27
1 3 2 o 988.01 1069.65
1 3 3 o 471.15 544.91
1 3 4 o 3095.13 3105.79
1 3 5 < 3.44 9.62
1 3 6 < 83.03 557.10
1 5 -6 o 786.80 1115.80
1 5 -5 o 1813.48 1893.55
1 5 -4 o 1747.93 1821.43
1 5 -3 o 7022.51 7181.67
1 5 -2 o 1519.64 1596.46
1 5 3 o 7153.85 7180.41
1 5 4 o 1718.99 1821.75
1 5 5 o 1773.56 1892.02
1 5 6 o 735.67 1116.13
1 7 -7 o 468.44 510.74
1 7 -6 o 806.11 782.68
1 7 -5 < 190.40 43.07
1 7 -4 < 159.77 223.96
1 7 -3 < 11.89 71.96
1 7 4 o 231.49 224.08
1 7 6 o 691.49 782.85
1 7 7 o 484.40 510.18
1 7 8 o 588.12 752.86
1 9 -8 < -3.32 21.39
1 9 -7 o 1198.17 1147.65
1 9 -6 o 568.09 698.51
1 9 -5 < 206.09 277.50
1 9 -4 o 326.16 363.30
1 9 -3 < 94.84 135.40
1 9 5 < 202.36 278.00
1 9 6 o 668.37 698.64
1 9 7 o 974.10 1146.10
1 9 8 < -6.50 21.52
1 11 -7 o 1017.17 1006.79
1 11 -6 o 284.16 316.94
1 11 -5 o 848.96 1035.21
1 11 -4 o 1293.05 1497.08
1 11 6 < 257.58 317.27
1 11 7 o 1160.43 1006.93
1 13 -7 < 7.35 12.52
1 13 -6 < 109.06 156.56
1 13 -5 o 374.21 390.74
1 15 -5 < 160.63 783.47
2 0 2 o 798.39 1331.75
2 2 -4 o 701.61 848.29
2 2 -3 < 150.19 119.80
2 2 -2 o 9384.23 8873.95
2 2 1 o 8934.74 7054.28
2 2 2 o 10217.40 8876.73
2 2 3 < 123.69 119.88
2 2 4 o 739.56 848.18
2 4 -6 o 2694.47 2843.80
2 4 -5 o 2205.74 1781.72
2 4 -4 o 3143.81 2787.11
2 4 -3 o 1319.41 1257.07
2 4 -2 o 2430.19 2356.15
2 4 2 o 2312.37 2358.08
2 4 3 o 1283.60 1255.18
2 4 4 o 2565.47 2785.03
2 4 5 o 1998.63 1780.43
2 4 6 o 2619.57 2845.20
2 4 7 < 253.95 393.90
2 6 -7 o 1381.95 1608.54
2 6 -6 < 208.33 376.86
2 6 -5 o 1332.52 1505.88
2 6 -4 o 3320.08 3029.86
2 6 -3 o 21722.40 21387.10
2 6 -2 o 8612.68 8169.07
2 6 3 o 20671.20 21391.40
2 6 4 o 3162.56 3031.06
2 6 5 o 1274.14 1504.66
2 6 6 o 258.58 376.52
2 6 7 o 1344.31 1609.36
2 6 8 < 311.88 991.72
2 8 -7 o 488.20 493.46
2 8 -6 o 659.21 694.89
2 8 -5 < 150.27 205.45
2 8 -4 o 485.21 679.24
2 8 -3 < 128.20 143.16
2 8 4 o 455.80 682.34
2 8 5 < 143.79 206.58
2 8 6 o 897.91 694.17
2 8 7 o 586.12 493.60
2 8 8 o 597.95 683.15
2 8 9 < 313.18 169.74
2 10 -8 < -10.18 45.25
2 10 -7 o 996.66 925.83
2 10 -6 o 2523.40 2531.25
2 10 -5 o 605.66 587.58
2 10 -4 o 2740.93 3187.40
2 10 -3 o 1047.63 1565.78
2 10 6 o 2500.60 2533.51
2 10 7 o 1101.94 925.78
2 10 8 < 0.43 45.56
2 12 -8 o 675.59 806.71
2 12 -7 o 829.00 745.81
2 12 -6 o 983.64 889.03
2 12 -5 o 597.02 581.52
2 12 -4 o 1703.24 1593.53
2 12 8 o 678.26 807.12
2 14 -7 < 257.92 298.49
2 14 -6 < 328.84 346.88
2 14 -5 o 2797.14 2734.30
2 16 -6 < 173.65 5.98
3 1 -3 o 1460.87 1603.63
3 1 -2 o 867.01 797.76
3 1 -1 o 2655.89 2540.55
3 1 0 o 4016.83 3769.13
3 1 1 o 2595.12 2541.16
3 1 2 o 821.28 798.83
3 1 3 o 1227.90 1604.66
3 1 4 < 186.34 65.85
3 3 -5 < 27.35 188.92
3 3 -4 o 1506.50 1274.50
3 3 -3 o 788.26 926.61
3 3 -2 < 243.25 306.39
3 3 -1 o 917.62 824.54
3 3 2 o 284.88 306.87
3 3 3 o 699.38 926.80
3 3 4 o 1393.06 1274.36
3 3 5 < 43.04 188.73
3 3 6 o 562.32 436.42
3 3 7 < 108.50 64.59
3 5 -6 o 819.05 803.33
3 5 -5 o 554.04 605.14
3 5 -4 o 1155.18 1262.48
3 5 -3 o 3170.74 3409.31
3 5 -2 o 983.68 995.08
3 5 3 o 3856.96 3411.14
3 5 4 o 1281.49 1262.67
3 5 5 o 521.19 603.53
3 5 6 o 614.69 803.39
3 7 -6 < 432.53 504.13
3 7 -5 < 30.10 79.83
3 7 -4 < 12.85 25.13
3 7 -3 < 77.40 81.88
3 7 -2 o 2010.25 2256.79
3 7 4 < 3.88 25.14
3 7 5 < 15.09 80.36
3 7 6 o 427.54 503.76
3 7 7 < 61.76 212.61
3 7 8 < 284.76 518.03
3 7 9 < 7.70 81.05
3 9 -7 o 620.35 918.07
3 9 -6 < 293.51 198.79
3 9 -5 < 38.70 145.30
3 9 -4 < -8.53 96.17
3 9 -3 < 69.18 91.02
3 9 5 < 160.50 145.17
3 9 6 < 148.72 198.82
3 9 7 o 851.37 916.30
3 9 8 < 7.44 27.06
3 9 9 < 175.12 160.94
3 11 -7 o 776.13 739.79
3 11 -6 < -1.15 68.24
3 11 -5 o 628.05 641.82
3 11 -4 o 676.54 751.90
3 11 8 < 507.74 424.64
3 13 -6 < 107.37 144.05
3 13 -5 < 173.60 243.07
3 13 -4 o 449.74 413.61
3 15 -5 < 349.53 359.72
4 0 -2 o 483.94 528.33
4 0 2 o 529.56 528.75
4 0 4 o 1505.17 1741.37
4 2 -4 o 693.40 827.06
4 2 -3 o 2942.19 2355.90
4 2 -2 o 1087.24 891.27
4 2 -1 o 4254.67 3032.19
4 2 0 o 191.65 329.80
4 2 1 o 3382.01 3032.33
4 2 2 o 1224.20 892.16
4 2 3 o 2668.18 2354.05
4 2 4 o 825.28 828.91
4 2 5 < 240.61 281.86
4 2 6 < 437.38 702.63
4 4 -6 < 255.62 484.70
4 4 -5 o 742.45 561.35
4 4 -4 o 2468.74 2143.47
4 4 -3 o 4601.91 4176.56
4 4 -2 o 8582.08 6439.53
4 4 -1 o 3130.87 2857.84
4 4 3 o 4974.71 4176.50
4 4 4 o 2125.82 2143.60
4 4 5 o 648.32 561.80
4 4 6 < 392.16 485.31
4 6 -6 < 375.03 389.57
4 6 -5 o 3320.01 3127.79
4 6 -4 < 448.20 449.57
4 6 -3 o 582.15 502.36
4 6 -2 o 1482.58 959.18
4 6 4 o 568.65 449.99
4 6 5 o 3169.06 3126.05
4 6 6 < 253.76 387.86
4 6 7 o 1715.32 1717.56
4 6 8 < 243.56 94.90
4 8 -5 < 401.29 330.73
4 8 -4 o 2083.07 1712.11
4 8 -3 o 1126.24 1230.21
4 8 -2 o 3518.62 3377.11
4 8 5 < 236.10 330.90
4 8 6 o 671.43 629.69
4 8 7 < 141.24 185.28
4 10 -4 < 177.62 141.18
4 10 -3 o 1957.22 1867.64
5 1 -3 o 1018.39 1128.80
5 1 -2 < 115.48 174.59
5 1 -1 o 718.86 793.32
5 1 0 o 173.65 221.28
5 1 1 o 696.83 792.84
5 1 2 < 115.60 173.62
5 1 3 o 946.55 1128.29
5 1 5 o 639.73 884.97
5 1 6 < 269.09 791.89
5 3 -5 < -0.77 8.23
5 3 -4 o 1104.19 979.10
5 3 -3 < 37.99 103.55
5 3 -2 o 559.31 517.28
5 3 -1 < 58.49 35.85
5 3 0 o 1070.71 1075.97
5 3 1 < 56.88 36.10
5 3 2 < 160.27 516.43
5 3 3 < 129.62 104.04
5 3 4 o 966.42 978.20
5 3 5 < 15.12 8.27
5 5 -5 o 1207.03 1073.74
5 5 -4 < 486.49 534.77
5 5 -3 o 2529.09 2264.77
5 5 -2 < 323.56 400.23
5 5 -1 o 413.72 449.18
5 5 0 < 98.53 117.39
5 5 4 o 613.32 534.95
5 5 5 o 965.59 1073.24
5 7 -4 < 173.68 149.07
5 7 -3 < 100.82 109.23
5 7 -2 o 555.08 692.06
5 9 -3 < 70.83 52.99
6 0 -2 o 1887.84 1606.32
6 0 0 o 1550.67 1311.39
6 0 2 o 1880.96 1606.01
6 0 4 o 2407.88 1666.88
6 2 -4 < 66.01 151.79
6 2 -3 < 176.81 122.94
6 2 -2 o 1189.25 752.71
6 2 -1 o 1795.60 1513.58
6 2 0 < 38.93 74.37
6 2 1 o 1702.13 1515.56
6 2 2 o 922.25 753.51
6 2 4 < 145.40 151.95
6 2 5 o 3287.98 3012.41
6 4 -5 < 436.56 334.05
6 4 -4 o 986.12 719.31
6 4 -3 o 548.88 429.69
6 4 -2 o 444.53 322.73
6 4 -1 < 201.57 11.19
6 4 0 o 4439.87 3045.25
6 4 1 < 32.77 11.45
6 4 2 < 89.75 323.32
6 4 4 o 1064.68 718.95
6 4 5 < 349.94 333.36
6 6 -4 o 623.68 629.81
6 6 -3 o 5964.19 4132.91
6 6 -2 o 1723.47 1477.33
6 6 -1 o 1218.10 970.49
6 8 -3 < 162.07 50.69
6 8 -2 o 1662.58 1418.18
7 1 -3 < 183.55 335.87
7 1 -2 < 260.11 170.67
7 1 -1 o 402.44 370.07
7 1 0 o 467.73 531.29
7 1 3 o 454.98 336.23
7 1 4 < 19.74 26.15
7 1 5 o 287.26 290.48
7 3 -4 < 255.03 186.45
7 3 -3 < 124.62 218.07
7 3 -2 < 20.16 50.29
7 3 -1 < 170.94 142.18
7 3 0 < 10.22 40.78
7 3 1 < 146.53 142.14
7 3 4 < 252.59 186.47
7 5 -4 < 461.11 261.61
7 5 -3 < 496.84 539.61
7 5 -2 < 217.25 160.08
7 5 -1 o 644.45 638.42
7 5 0 < -32.49 55.42
7 7 -3 < 82.80 24.68
7 7 -2 < 352.65 432.59
7 7 -1 < -27.71 4.03
