#------------------------------------------------------------------------------
#$Date: 2016-02-20 20:10:49 +0200 (Sat, 20 Feb 2016) $
#$Revision: 176788 $
#$URL: svn://www.crystallography.net/cod/cif/1/51/39/1513967.cif $
#------------------------------------------------------------------------------
#
# This file is available in the Crystallography Open Database (COD),
# http://www.crystallography.net/
#
# All data on this site have been placed in the public domain by the
# contributors.
#
data_1513967
loop_
_publ_author_name
'Piszora, P.'
_publ_section_title
;
 Temperature dependence of the order and distribution of Mn^3+^ and Mn^4+^
 cations in orthorhombic LiMn~2~O~4~
;
_journal_coden_ASTM              JALCEU
_journal_issue                   1-2
_journal_name_full               'Journal of Alloys and Compounds'
_journal_page_first              112
_journal_page_last               118
_journal_paper_doi               10.1016/j.jallcom.2004.06.013
_journal_volume                  382
_journal_year                    2004
_chemical_formula_structural     'Li (Mn2 O4)'
_chemical_formula_sum            'Li Mn2 O4'
_chemical_name_systematic        'Lithium Manganese(III) Manganese(IV) Oxide'
_space_group_IT_number           70
_symmetry_Int_Tables_number      70
_symmetry_space_group_name_Hall  '-F 2uv 2vw'
_symmetry_space_group_name_H-M   'F d d d :2'
_audit_creation_date             2005/10/01
_audit_update_record             2011/02/01
_cell_angle_alpha                90.
_cell_angle_beta                 90.
_cell_angle_gamma                90.
_cell_formula_units_Z            72
_cell_length_a                   24.75193(13)
_cell_length_b                   24.87184(14)
_cell_length_c                   8.19950(4)
_cell_volume                     5047.83(5)
_refine_ls_R_factor_all          0.0393
_cod_data_source_file            'data_LiMn2O4melanie054700.cif'
_cod_data_source_block
/var/www/cod/tmp/uploads/1395739739.27-D290F29E9218B844.cif
_cod_original_cell_volume        5047.81
_cod_original_sg_symbol_H-M      'F d d d Z'
_cod_original_formula_sum        'Li1 Mn2 O4'
_cod_database_code               1513967
loop_
_symmetry_equiv_pos_site_id
_symmetry_equiv_pos_as_xyz
1 'x+3/4, y+3/4, -z'
2 'x+3/4, -y, z+3/4'
3 '-x, y+3/4, z+3/4'
4 '-x, -y, -z'
5 '-x+1/4, -y+1/4, z'
6 '-x+1/4, y, -z+1/4'
7 'x, -y+1/4, -z+1/4'
8 'x, y, z'
9 'x+3/4, y+1/4, -z+1/2'
10 'x+1/4, y+3/4, -z+1/2'
11 'x+1/4, y+1/4, -z'
12 'x+3/4, -y+1/2, z+1/4'
13 'x+1/4, -y, z+1/4'
14 'x+1/4, -y+1/2, z+3/4'
15 '-x, y+1/4, z+1/4'
16 '-x+1/2, y+3/4, z+1/4'
17 '-x+1/2, y+1/4, z+3/4'
18 '-x, -y+1/2, -z+1/2'
19 '-x+1/2, -y, -z+1/2'
20 '-x+1/2, -y+1/2, -z'
21 '-x+1/4, -y+3/4, z+1/2'
22 '-x+3/4, -y+1/4, z+1/2'
23 '-x+3/4, -y+3/4, z'
24 '-x+1/4, y+1/2, -z+3/4'
25 '-x+3/4, y, -z+3/4'
26 '-x+3/4, y+1/2, -z+1/4'
27 'x, -y+3/4, -z+3/4'
28 'x+1/2, -y+1/4, -z+3/4'
29 'x+1/2, -y+3/4, -z+1/4'
30 'x, y+1/2, z+1/2'
31 'x+1/2, y, z+1/2'
32 'x+1/2, y+1/2, z'
loop_
_atom_site_label
_atom_site_type_symbol
_atom_site_symmetry_multiplicity
_atom_site_Wyckoff_symbol
_atom_site_fract_x
_atom_site_fract_y
_atom_site_fract_z
_atom_site_occupancy
_atom_site_attached_hydrogens
_atom_site_U_iso_or_equiv
Li1 Li1+ 8 a 0.125 0.125 0.125 1. 0 0.029(6)
Li2 Li1+ 16 f 0.375 0.2067(28) 0.375 1. 0 0.029(6)
Li3 Li1+ 16 e 0.1961(25) 0.375 0.375 1. 0 0.029(6)
Li4 Li1+ 32 h 0.2995(19) 0.2978(20) 0.123(6) 1. 0 0.029(6)
Mn1 Mn3.5+ 16 d 0.250 0.250 0.5 1. 0 0.00728(16)
Mn2 Mn3.5+ 32 h 0.08092(7) 0.08505(18) 0.5028(6) 1. 0 0.00728(16)
Mn3 Mn3.5+ 32 h 0.08382(27) 0.33026(19) 0.2488(9) 1. 0 0.00728(16)
Mn4 Mn3.5+ 32 h 0.25374(23) 0.16848(17) 0.2448(7) 1. 0 0.00728(16)
Mn5 Mn3.5+ 32 h 0.16689(19) 0.24422(15) 0.2448(6) 1. 0 0.00728(16)
O1 O2- 32 h 0.1714(8) 0.1658(5) 0.2612(21) 1. 0 0.0160(6)
O2 O2- 32 h 0.0790(8) 0.0089(6) 0.4742(26) 1. 0 0.0160(6)
O3 O2- 32 h 0.0818(8) 0.3320(5) 0.4910(24) 1. 0 0.0160(6)
O4 O2- 32 h 0.2509(7) 0.1720(6) 0.4792(28) 1. 0 0.0160(6)
O5 O2- 32 h 0.0038(8) 0.0052(6) 0.2373(18) 1. 0 0.0160(6)
O6 O2- 32 h 0.2571(8) 0.0880(7) 0.2395(31) 1. 0 0.0160(6)
O7 O2- 32 h 0.1602(7) 0.3224(6) 0.2301(26) 1. 0 0.0160(6)
O8 O2- 32 h 0.0858(8) 0.2458(6) 0.2404(26) 1. 0 0.0160(6)
O9 O2- 32 h 0.0890(7) 0.1591(5) 0.5200(19) 1. 0 0.0160(6)
loop_
_atom_type_symbol
_atom_type_oxidation_number
Li1+ 1
Mn3.5+ 3.5
O2- -2
