#------------------------------------------------------------------------------
#$Date: 2021-04-22 17:50:57 +0300 (Thu, 22 Apr 2021) $
#$Revision: 264419 $
#$URL: file:///home/coder/svn-repositories/cod/cif/1/51/40/1514092.cif $
#------------------------------------------------------------------------------
#
# This file is available in the Crystallography Open Database (COD),
# http://www.crystallography.net/
#
# All data on this site have been placed in the public domain by the
# contributors.
#
data_1514092
loop_
_publ_author_name
'Zhuravlev, Yu. N.'
'Obolonskaya, O. S.'
_publ_section_title
;
 Structure, mechanical stability and chemical bond in alkali metal oxides
;
_journal_coden_ASTM              JSTCAM
_journal_issue                   6
_journal_name_full
;
 Journal of Structural Chemistry (USSR) (= Zhurnal Strukturnoi Khimii)
;
_journal_page_first              1005
_journal_page_last               1013
_journal_paper_doi               10.1007/s10947-010-0157-1
_journal_volume                  51
_journal_year                    2010
_chemical_formula_structural     'Li2 O'
_chemical_formula_sum            'Li2 O'
_chemical_name_systematic        'Dilithium Oxide'
_space_group_IT_number           225
_symmetry_Int_Tables_number      225
_symmetry_space_group_name_Hall  '-F 4 2 3'
_symmetry_space_group_name_H-M   'F m -3 m'
_audit_creation_date             2011/08/01
_cell_angle_alpha                90.
_cell_angle_beta                 90.
_cell_angle_gamma                90.
_cell_formula_units_Z            4
_cell_length_a                   4.620
_cell_length_b                   4.620
_cell_length_c                   4.620
_cell_volume                     98.611
_cod_data_source_file            'data_Li2Omelanie180569.cif'
_cod_data_source_block
/var/www/cod/tmp/uploads/1395928921.21-D290F29E9218B844.cif
_cod_depositor_comments
;
 Reordered symmetry operations to have 'x,y,z' as the first operation.

 Antanas Vaitkus,
 2021-04-22
;
_cod_original_cell_volume        98.61
_cod_original_formula_sum        'Li2 O1'
_cod_database_code               1514092
loop_
_space_group_symop_id
_space_group_symop_operation_xyz
1 x,y,z
2 -y,x,z
3 -x,-y,z
4 y,-x,z
5 x,-y,-z
6 y,x,-z
7 -x,y,-z
8 -y,-x,-z
9 z,x,y
10 -x,z,y
11 -z,-x,y
12 x,-z,y
13 z,-x,-y
14 x,z,-y
15 -z,x,-y
16 -x,-z,-y
17 y,z,x
18 y,-z,-x
19 z,y,-x
20 -y,z,-x
21 -z,-y,-x
22 -y,-z,x
23 z,-y,x
24 -z,y,x
25 -x,-y,-z
26 y,-x,-z
27 x,y,-z
28 -y,x,-z
29 -x,y,z
30 -y,-x,z
31 x,-y,z
32 y,x,z
33 -z,-x,-y
34 x,-z,-y
35 z,x,-y
36 -x,z,-y
37 -z,x,y
38 -x,-z,y
39 z,-x,y
40 x,z,y
41 -y,-z,-x
42 -y,z,x
43 -z,-y,x
44 y,-z,x
45 z,y,x
46 y,z,-x
47 -z,y,-x
48 z,-y,-x
49 x,y+1/2,z+1/2
50 -y,x+1/2,z+1/2
51 -x,-y+1/2,z+1/2
52 y,-x+1/2,z+1/2
53 x,-y+1/2,-z+1/2
54 y,x+1/2,-z+1/2
55 -x,y+1/2,-z+1/2
56 -y,-x+1/2,-z+1/2
57 z,x+1/2,y+1/2
58 -x,z+1/2,y+1/2
59 -z,-x+1/2,y+1/2
60 x,-z+1/2,y+1/2
61 z,-x+1/2,-y+1/2
62 x,z+1/2,-y+1/2
63 -z,x+1/2,-y+1/2
64 -x,-z+1/2,-y+1/2
65 y,z+1/2,x+1/2
66 y,-z+1/2,-x+1/2
67 z,y+1/2,-x+1/2
68 -y,z+1/2,-x+1/2
69 -z,-y+1/2,-x+1/2
70 -y,-z+1/2,x+1/2
71 z,-y+1/2,x+1/2
72 -z,y+1/2,x+1/2
73 -x,-y+1/2,-z+1/2
74 y,-x+1/2,-z+1/2
75 x,y+1/2,-z+1/2
76 -y,x+1/2,-z+1/2
77 -x,y+1/2,z+1/2
78 -y,-x+1/2,z+1/2
79 x,-y+1/2,z+1/2
80 y,x+1/2,z+1/2
81 -z,-x+1/2,-y+1/2
82 x,-z+1/2,-y+1/2
83 z,x+1/2,-y+1/2
84 -x,z+1/2,-y+1/2
85 -z,x+1/2,y+1/2
86 -x,-z+1/2,y+1/2
87 z,-x+1/2,y+1/2
88 x,z+1/2,y+1/2
89 -y,-z+1/2,-x+1/2
90 -y,z+1/2,x+1/2
91 -z,-y+1/2,x+1/2
92 y,-z+1/2,x+1/2
93 z,y+1/2,x+1/2
94 y,z+1/2,-x+1/2
95 -z,y+1/2,-x+1/2
96 z,-y+1/2,-x+1/2
97 x+1/2,y,z+1/2
98 -y+1/2,x,z+1/2
99 -x+1/2,-y,z+1/2
100 y+1/2,-x,z+1/2
101 x+1/2,-y,-z+1/2
102 y+1/2,x,-z+1/2
103 -x+1/2,y,-z+1/2
104 -y+1/2,-x,-z+1/2
105 z+1/2,x,y+1/2
106 -x+1/2,z,y+1/2
107 -z+1/2,-x,y+1/2
108 x+1/2,-z,y+1/2
109 z+1/2,-x,-y+1/2
110 x+1/2,z,-y+1/2
111 -z+1/2,x,-y+1/2
112 -x+1/2,-z,-y+1/2
113 y+1/2,z,x+1/2
114 y+1/2,-z,-x+1/2
115 z+1/2,y,-x+1/2
116 -y+1/2,z,-x+1/2
117 -z+1/2,-y,-x+1/2
118 -y+1/2,-z,x+1/2
119 z+1/2,-y,x+1/2
120 -z+1/2,y,x+1/2
121 -x+1/2,-y,-z+1/2
122 y+1/2,-x,-z+1/2
123 x+1/2,y,-z+1/2
124 -y+1/2,x,-z+1/2
125 -x+1/2,y,z+1/2
126 -y+1/2,-x,z+1/2
127 x+1/2,-y,z+1/2
128 y+1/2,x,z+1/2
129 -z+1/2,-x,-y+1/2
130 x+1/2,-z,-y+1/2
131 z+1/2,x,-y+1/2
132 -x+1/2,z,-y+1/2
133 -z+1/2,x,y+1/2
134 -x+1/2,-z,y+1/2
135 z+1/2,-x,y+1/2
136 x+1/2,z,y+1/2
137 -y+1/2,-z,-x+1/2
138 -y+1/2,z,x+1/2
139 -z+1/2,-y,x+1/2
140 y+1/2,-z,x+1/2
141 z+1/2,y,x+1/2
142 y+1/2,z,-x+1/2
143 -z+1/2,y,-x+1/2
144 z+1/2,-y,-x+1/2
145 x+1/2,y+1/2,z
146 -y+1/2,x+1/2,z
147 -x+1/2,-y+1/2,z
148 y+1/2,-x+1/2,z
149 x+1/2,-y+1/2,-z
150 y+1/2,x+1/2,-z
151 -x+1/2,y+1/2,-z
152 -y+1/2,-x+1/2,-z
153 z+1/2,x+1/2,y
154 -x+1/2,z+1/2,y
155 -z+1/2,-x+1/2,y
156 x+1/2,-z+1/2,y
157 z+1/2,-x+1/2,-y
158 x+1/2,z+1/2,-y
159 -z+1/2,x+1/2,-y
160 -x+1/2,-z+1/2,-y
161 y+1/2,z+1/2,x
162 y+1/2,-z+1/2,-x
163 z+1/2,y+1/2,-x
164 -y+1/2,z+1/2,-x
165 -z+1/2,-y+1/2,-x
166 -y+1/2,-z+1/2,x
167 z+1/2,-y+1/2,x
168 -z+1/2,y+1/2,x
169 -x+1/2,-y+1/2,-z
170 y+1/2,-x+1/2,-z
171 x+1/2,y+1/2,-z
172 -y+1/2,x+1/2,-z
173 -x+1/2,y+1/2,z
174 -y+1/2,-x+1/2,z
175 x+1/2,-y+1/2,z
176 y+1/2,x+1/2,z
177 -z+1/2,-x+1/2,-y
178 x+1/2,-z+1/2,-y
179 z+1/2,x+1/2,-y
180 -x+1/2,z+1/2,-y
181 -z+1/2,x+1/2,y
182 -x+1/2,-z+1/2,y
183 z+1/2,-x+1/2,y
184 x+1/2,z+1/2,y
185 -y+1/2,-z+1/2,-x
186 -y+1/2,z+1/2,x
187 -z+1/2,-y+1/2,x
188 y+1/2,-z+1/2,x
189 z+1/2,y+1/2,x
190 y+1/2,z+1/2,-x
191 -z+1/2,y+1/2,-x
192 z+1/2,-y+1/2,-x
loop_
_atom_site_label
_atom_site_type_symbol
_atom_site_symmetry_multiplicity
_atom_site_Wyckoff_symbol
_atom_site_fract_x
_atom_site_fract_y
_atom_site_fract_z
_atom_site_occupancy
_atom_site_attached_hydrogens
_atom_site_B_iso_or_equiv
O1 O2- 4 a 0 0 0 1. 0 0
Li1 Li1+ 8 c 0.250 0.250 0.250 1. 0 0
loop_
_atom_type_symbol
_atom_type_oxidation_number
Li1+ 1
O2- -2
