#------------------------------------------------------------------------------
#$Date: 2016-02-21 09:49:01 +0200 (Sun, 21 Feb 2016) $
#$Revision: 176808 $
#$URL: svn://www.crystallography.net/cod/cif/1/51/42/1514232.cif $
#------------------------------------------------------------------------------
#
# This file is available in the Crystallography Open Database (COD),
# http://www.crystallography.net/
#
# All data on this site have been placed in the public domain by the
# contributors.
#
data_1514232
loop_
_publ_author_name
'Brenet, J.'
_publ_section_title
;
 Sur la structure cristalline des bioxydes de mangan\`ese
;
_journal_coden_ASTM              COREAF
_journal_name_full
;
Comptes Rendus Hebdomadaires des Seances de l`Academie des Sciences (1884 - 1965)
;
_journal_page_first              1360
_journal_page_last               1362
_journal_volume                  230
_journal_year                    1950
_chemical_formula_structural     'Mn O2'
_chemical_formula_sum            'Mn O2'
_chemical_name_systematic        'Manganese Oxide (1/2)'
_space_group_IT_number           136
_symmetry_Int_Tables_number      136
_symmetry_space_group_name_Hall  '-P 4n 2n'
_symmetry_space_group_name_H-M   'P 42/m n m'
_audit_creation_date             2008/07/07
_audit_update_record             2009/08/01
_cell_angle_alpha                90.0
_cell_angle_beta                 90.0
_cell_angle_gamma                90.0
_cell_formula_units_Z            2
_cell_length_a                   4.3950
_cell_length_b                   4.3950
_cell_length_c                   2.8600
_cell_volume                     55.244
_cod_data_source_file            'data_MnO2melanie643186.cif'
_cod_data_source_block
/var/www/cod/tmp/uploads/1396618390.23-D290F29E9218B844.cif
_cod_original_cell_volume        55.24
_cod_original_formula_sum        'Mn1 O2'
_cod_database_code               1514232
loop_
_symmetry_equiv_pos_site_id
_symmetry_equiv_pos_as_xyz
1 '-y+1/2, x+1/2, -z+1/2'
2 'y+1/2, -x+1/2, -z+1/2'
3 'y, x, -z'
4 '-y, -x, -z'
5 'y+1/2, -x+1/2, z+1/2'
6 '-y+1/2, x+1/2, z+1/2'
7 '-y, -x, z'
8 'y, x, z'
9 'x+1/2, -y+1/2, -z+1/2'
10 '-x+1/2, y+1/2, -z+1/2'
11 'x, y, -z'
12 '-x, -y, -z'
13 '-x+1/2, y+1/2, z+1/2'
14 'x+1/2, -y+1/2, z+1/2'
15 '-x, -y, z'
16 'x, y, z'
loop_
_atom_site_label
_atom_site_type_symbol
_atom_site_symmetry_multiplicity
_atom_site_Wyckoff_symbol
_atom_site_fract_x
_atom_site_fract_y
_atom_site_fract_z
_atom_site_occupancy
_atom_site_attached_hydrogens
Mn1 Mn0+ 2 a 0 0 0 1.000 0
O1 O0+ 4 f 0.30300 0.30300 0 1.000 0
loop_
_atom_type_symbol
_atom_type_oxidation_number
Mn0+ 0
O0+ 0
