#------------------------------------------------------------------------------
#$Date: 2016-02-21 09:49:01 +0200 (Sun, 21 Feb 2016) $
#$Revision: 176808 $
#$URL: svn://www.crystallography.net/cod/cif/1/51/40/1514084.cif $
#------------------------------------------------------------------------------
#
# This file is available in the Crystallography Open Database (COD),
# http://www.crystallography.net/
#
# All data on this site have been placed in the public domain by the
# contributors.
#
data_1514084
loop_
_publ_author_name
'F\"oppl, H.'
_publ_section_title
;
 Die Kristallstrukturen der Alkaliperoxyde
;
_journal_coden_ASTM              ZAACAB
_journal_issue                   1-4
_journal_name_full
'Zeitschrift f\"ur anorganische und allgemeine Chemie'
_journal_page_first              12
_journal_page_last               50
_journal_paper_doi               10.1002/zaac.19572910104
_journal_volume                  291
_journal_year                    1957
_chemical_formula_structural     'Li2 O2'
_chemical_formula_sum            'Li2 O2'
_chemical_name_systematic        'Dilithium Peroxide'
_space_group_IT_number           194
_symmetry_Int_Tables_number      194
_symmetry_space_group_name_Hall  '-P 6c 2c'
_symmetry_space_group_name_H-M   'P 63/m m c'
_audit_creation_date             1980/01/01
_audit_update_record             2007/08/01
_cell_angle_alpha                90.
_cell_angle_beta                 90.
_cell_angle_gamma                120.
_cell_formula_units_Z            2
_cell_length_a                   3.142
_cell_length_b                   3.142
_cell_length_c                   7.65
_cell_volume                     65.404
_cod_data_source_file            'data_Li2O2melanie025530.cif'
_cod_data_source_block
/var/www/cod/tmp/uploads/1395927738.27-D290F29E9218B844.cif
_cod_original_cell_volume        65.4
_cod_database_code               1514084
loop_
_symmetry_equiv_pos_site_id
_symmetry_equiv_pos_as_xyz
1 'x, x-y, -z+1/2'
2 '-x+y, y, -z+1/2'
3 '-y, -x, -z+1/2'
4 '-x+y, -x, -z+1/2'
5 '-y, x-y, -z+1/2'
6 'x, y, -z+1/2'
7 '-x, -x+y, z+1/2'
8 'x-y, -y, z+1/2'
9 'y, x, z+1/2'
10 'x-y, x, z+1/2'
11 'y, -x+y, z+1/2'
12 '-x, -y, z+1/2'
13 '-x, -x+y, -z'
14 'x-y, -y, -z'
15 'y, x, -z'
16 'x-y, x, -z'
17 'y, -x+y, -z'
18 '-x, -y, -z'
19 'x, x-y, z'
20 '-x+y, y, z'
21 '-y, -x, z'
22 '-x+y, -x, z'
23 '-y, x-y, z'
24 'x, y, z'
loop_
_atom_site_label
_atom_site_type_symbol
_atom_site_symmetry_multiplicity
_atom_site_Wyckoff_symbol
_atom_site_fract_x
_atom_site_fract_y
_atom_site_fract_z
_atom_site_occupancy
_atom_site_attached_hydrogens
Li1 Li1+ 2 c 0.3333 0.6667 0.25 1. 0
Li2 Li1+ 2 a 0 0 0 1. 0
O1 O1- 4 f 0.3333 0.6667 0.651 1. 0
loop_
_atom_type_symbol
_atom_type_oxidation_number
Li1+ 1
O1- -1
