#------------------------------------------------------------------------------
#$Date: 2018-09-27 07:13:35 +0300 (Thu, 27 Sep 2018) $
#$Revision: 211196 $
#$URL: file:///home/coder/svn-repositories/cod/cif/1/52/08/1520849.cif $
#------------------------------------------------------------------------------
#
# This file is available in the Crystallography Open Database (COD),
# http://www.crystallography.net/
#
# All data on this site have been placed in the public domain by the
# contributors.
#
data_1520849
loop_
_publ_author_name
'Berry, F.J.'
'Greaves, C.'
'McManus, J.'
'Helgason, O.'
'Palmer, H.M.'
'Williams, R.T.'
_publ_section_title
;
 Structural and magnetic properties of Sn-, Ti-, and Mg-substituted
 alpha-(Fe2 O3): a study by neutron diffraction and Mossbauer spectroscopy
;
_journal_name_full               'Journal of Solid State Chemistry'
_journal_page_first              157
_journal_page_last               162
_journal_volume                  151
_journal_year                    2000
_chemical_formula_sum            'Fe1.886 Mg0.171 O3'
_space_group_IT_number           167
_symmetry_space_group_name_Hall  '-R 3 2"c'
_symmetry_space_group_name_H-M   'R -3 c :H'
_cell_angle_alpha                90
_cell_angle_beta                 90
_cell_angle_gamma                120
_cell_formula_units_Z            6
_cell_length_a                   5.0506
_cell_length_b                   5.0506
_cell_length_c                   13.7919
_cell_volume                     304.678
_citation_journal_id_ASTM        JSSCBI
_cod_data_source_file            Berry_JSSCBI_2000_1846.cif
_cod_data_source_block           Fe1.886Mg0.171O3
_cod_original_cell_volume        304.6777
_cod_database_code               1520849
loop_
_symmetry_equiv_pos_as_xyz
x,y,z
-y,x-y,z
-x+y,-x,z
y,x,-z+1/2
-x,-x+y,-z+1/2
x-y,-y,-z+1/2
-x,-y,-z
y,-x+y,-z
x-y,x,-z
-y,-x,z-1/2
x,x-y,z-1/2
-x+y,y,z-1/2
x+2/3,y+1/3,z+1/3
-y+2/3,x-y+1/3,z+1/3
-x+y+2/3,-x+1/3,z+1/3
y+2/3,x+1/3,-z+5/6
-x+2/3,-x+y+1/3,-z+5/6
x-y+2/3,-y+1/3,-z+5/6
-x+2/3,-y+1/3,-z+1/3
y+2/3,-x+y+1/3,-z+1/3
x-y+2/3,x+1/3,-z+1/3
-y+2/3,-x+1/3,z-1/6
x+2/3,x-y+1/3,z-1/6
-x+y+2/3,y+1/3,z-1/6
x+1/3,y+2/3,z+2/3
-y+1/3,x-y+2/3,z+2/3
-x+y+1/3,-x+2/3,z+2/3
y+1/3,x+2/3,-z+7/6
-x+1/3,-x+y+2/3,-z+7/6
x-y+1/3,-y+2/3,-z+7/6
-x+1/3,-y+2/3,-z+2/3
y+1/3,-x+y+2/3,-z+2/3
x-y+1/3,x+2/3,-z+2/3
-y+1/3,-x+2/3,z+1/6
x+1/3,x-y+2/3,z+1/6
-x+y+1/3,y+2/3,z+1/6
loop_
_atom_site_label
_atom_site_type_symbol
_atom_site_fract_x
_atom_site_fract_y
_atom_site_fract_z
_atom_site_occupancy
_atom_site_U_iso_or_equiv
Mg2 Mg+2 0 0 0 0.057 0.0
O1 O-2 0.3072 0 0.25 1 0.0
Fe1 Fe+3 0 0 0.3547 0.943 0.0
Mg1 Mg+2 0 0 0.3547 0.057 0.0
