#------------------------------------------------------------------------------
#$Date: 2016-02-13 21:28:24 +0200 (Sat, 13 Feb 2016) $
#$Revision: 176429 $
#$URL: svn://www.crystallography.net/cod/cif/1/52/09/1520952.cif $
#------------------------------------------------------------------------------
#
# This file is available in the Crystallography Open Database (COD),
# http://www.crystallography.net/
#
# All data on this site have been placed in the public domain by the
# contributors.
#
data_1520952
loop_
_publ_author_name
'Cherepanov, V.A.'
'Voronin, V.I.'
'Filonova, E.A.'
'Berger, I.F.'
_publ_section_title
;
 Phase equilibria in the (La Co O3) - (La Mn O3) -(Ba Co Oz) (Ba Mn O3)
 system
;
_journal_name_full               'Journal of Solid State Chemistry'
_journal_page_first              205
_journal_page_last               211
_journal_volume                  153
_journal_year                    2000
_chemical_formula_sum            'Ba0.225 La0.775 Mn O3'
_chemical_name_systematic        'La0.775 Ba0.225 Mn O3'
_space_group_IT_number           167
_symmetry_space_group_name_Hall  '-R 3 2"c'
_symmetry_space_group_name_H-M   'R -3 c :H'
_cell_angle_alpha                90
_cell_angle_beta                 90
_cell_angle_gamma                120
_cell_formula_units_Z            6
_cell_length_a                   5.5433
_cell_length_b                   5.5433
_cell_length_c                   13.471
_cell_volume                     358.482
_citation_journal_id_ASTM        JSSCBI
_cod_data_source_file            Cherepanov_JSSCBI_2000_1959.cif
_cod_data_source_block           Ba0.225La0.775Mn1O3
_cod_original_cell_volume        358.4819
_cod_original_formula_sum        'Ba0.225 La0.775 Mn1 O3'
_cod_database_code               1520952
loop_
_symmetry_equiv_pos_as_xyz
x,y,z
-y,x-y,z
-x+y,-x,z
y,x,-z+1/2
-x,-x+y,-z+1/2
x-y,-y,-z+1/2
-x,-y,-z
y,-x+y,-z
x-y,x,-z
-y,-x,z-1/2
x,x-y,z-1/2
-x+y,y,z-1/2
x+2/3,y+1/3,z+1/3
-y+2/3,x-y+1/3,z+1/3
-x+y+2/3,-x+1/3,z+1/3
y+2/3,x+1/3,-z+5/6
-x+2/3,-x+y+1/3,-z+5/6
x-y+2/3,-y+1/3,-z+5/6
-x+2/3,-y+1/3,-z+1/3
y+2/3,-x+y+1/3,-z+1/3
x-y+2/3,x+1/3,-z+1/3
-y+2/3,-x+1/3,z-1/6
x+2/3,x-y+1/3,z-1/6
-x+y+2/3,y+1/3,z-1/6
x+1/3,y+2/3,z+2/3
-y+1/3,x-y+2/3,z+2/3
-x+y+1/3,-x+2/3,z+2/3
y+1/3,x+2/3,-z+7/6
-x+1/3,-x+y+2/3,-z+7/6
x-y+1/3,-y+2/3,-z+7/6
-x+1/3,-y+2/3,-z+2/3
y+1/3,-x+y+2/3,-z+2/3
x-y+1/3,x+2/3,-z+2/3
-y+1/3,-x+2/3,z+1/6
x+1/3,x-y+2/3,z+1/6
-x+y+1/3,y+2/3,z+1/6
loop_
_atom_site_label
_atom_site_type_symbol
_atom_site_fract_x
_atom_site_fract_y
_atom_site_fract_z
_atom_site_occupancy
_atom_site_U_iso_or_equiv
Mn1 Mn+3 0 0 0 1 0.0
Ba1 Ba+2 0 0 0.25 0.225 0.0
La1 La+3 0 0 0.25 0.775 0.0
O1 O-2 0.462 0 0.25 1 0.0
