#------------------------------------------------------------------------------
#$Date: 2015-07-06 23:28:56 +0300 (Mon, 06 Jul 2015) $
#$Revision: 140412 $
#$URL: svn://www.crystallography.net/cod/cif/1/52/08/1520856.cif $
#------------------------------------------------------------------------------
#
# This file is available in the Crystallography Open Database (COD),
# http://www.crystallography.net/
#
# All data on this site have been placed in the public domain by the
# contributors.
#
data_1520856
loop_
_publ_author_name
'Bertrand, C.'
'Jorda, J.L.'
'Galez, P.'
'Gladyshevskii, R.E.'
_publ_section_title
;
 The Pr (Ba1-x Prx)2 Cu3 O7+d solid solution. A crystal structure and
 phase diagram study
;
_journal_name_full               'Physica C (Amsterdam)'
_journal_page_first              151
_journal_page_last               161
_journal_volume                  321
_journal_year                    1999
_chemical_formula_sum            'Ba1.2 Cu3 Nd1.8 O7.24'
_chemical_name_systematic        'Nd (Ba0.6 Nd0.4)2 Cu3 O7.24'
_space_group_IT_number           47
_symmetry_space_group_name_Hall  '-P 2 2'
_symmetry_space_group_name_H-M   'P m m m'
_cell_angle_alpha                90
_cell_angle_beta                 90
_cell_angle_gamma                90
_cell_formula_units_Z            1
_cell_length_a                   3.8828
_cell_length_b                   3.8493
_cell_length_c                   11.6077
_cell_volume                     173.489
_citation_journal_id_ASTM        PHYCE6
_cod_data_source_file            Bertrand_PHYCE6_1999_652.cif
_cod_data_source_block           Ba1.2Cu3Nd1.8O7.24
_cod_original_cell_volume        173.4894
_cod_database_code               1520856
loop_
_symmetry_equiv_pos_as_xyz
x,y,z
-x,-y,z
x,-y,-z
-x,y,-z
-x,-y,-z
x,y,-z
-x,y,z
x,-y,z
loop_
_atom_site_label
_atom_site_type_symbol
_atom_site_fract_x
_atom_site_fract_y
_atom_site_fract_z
_atom_site_occupancy
_atom_site_U_iso_or_equiv
O2 O-2 0.5 0 0 1 0.0
O1 O-2 0 0.5 0 0.24 0.0
Ba1 Ba+2 0.5 0.5 0.1776 0.6 0.0
Cu1 Cu+2 0 0 0 1 0.0
O3 O-2 0 0 0.18 1 0.0
Nd1 Nd+3 0.5 0.5 0.1776 0.4 0.0
Nd2 Nd+3 0.5 0.5 0.5 1 0.0
Cu2 Cu+2 0 0 0.3529 1 0.0
O5 O-2 0.5 0 0.385 1 0.0
O4 O-2 0 0.5 0.374 1 0.0
