#------------------------------------------------------------------------------
#$Date: 2016-02-13 21:28:24 +0200 (Sat, 13 Feb 2016) $
#$Revision: 176429 $
#$URL: svn://www.crystallography.net/cod/cif/1/52/08/1520893.cif $
#------------------------------------------------------------------------------
#
# This file is available in the Crystallography Open Database (COD),
# http://www.crystallography.net/
#
# All data on this site have been placed in the public domain by the
# contributors.
#
data_1520893
loop_
_publ_author_name
'Brinks, H.W.'
'Fjellvag, H.'
'Kjekshus, A.'
'Hauback, B.C.'
_publ_section_title
;
 Structure and magnetism of Pr1-x Srx Fe O3-d
;
_journal_name_full               'Journal of Solid State Chemistry'
_journal_page_first              233
_journal_page_last               249
_journal_volume                  150
_journal_year                    2000
_chemical_formula_sum            'Fe O3 Pr0.5 Sr0.5'
_chemical_name_systematic        '(Pr0.5 Sr0.5) Fe O3'
_space_group_IT_number           62
_symmetry_space_group_name_Hall  '-P 2ac 2n'
_symmetry_space_group_name_H-M   'P n m a'
_cell_angle_alpha                90
_cell_angle_beta                 90
_cell_angle_gamma                90
_cell_formula_units_Z            4
_cell_length_a                   5.4762
_cell_length_b                   7.7438
_cell_length_c                   5.4892
_cell_volume                     232.778
_citation_journal_id_ASTM        JSSCBI
_cod_data_source_file            Brinks_JSSCBI_2000_1787.cif
_cod_data_source_block           Fe1O3Pr0.5Sr0.5
_cod_original_cell_volume        232.7783
_cod_original_formula_sum        'Fe1 O3 Pr0.5 Sr0.5'
_cod_database_code               1520893
loop_
_symmetry_equiv_pos_as_xyz
x,y,z
-x+1/2,-y,z+1/2
x+1/2,-y+1/2,-z+1/2
-x,y+1/2,-z
-x,-y,-z
x-1/2,y,-z-1/2
-x-1/2,y-1/2,z-1/2
x,-y-1/2,z
loop_
_atom_site_label
_atom_site_type_symbol
_atom_site_fract_x
_atom_site_fract_y
_atom_site_fract_z
_atom_site_occupancy
_atom_site_U_iso_or_equiv
Sr1 Sr+2 0.4856 0.25 -0.0041 0.5 0.0
O1 O-2 0.0015 0.25 0.0687 1 0.0
Fe1 Fe+3 0 0 0 1 0.0
Pr1 Pr+3 0.4856 0.25 -0.0041 0.5 0.0
O2 O-2 0.2638 -0.0163 0.2342 1 0.0
