#------------------------------------------------------------------------------
#$Date: 2016-02-13 21:28:24 +0200 (Sat, 13 Feb 2016) $
#$Revision: 176429 $
#$URL: svn://www.crystallography.net/cod/cif/1/52/08/1520832.cif $
#------------------------------------------------------------------------------
#
# This file is available in the Crystallography Open Database (COD),
# http://www.crystallography.net/
#
# All data on this site have been placed in the public domain by the
# contributors.
#
data_1520832
loop_
_publ_author_name
'Battle, P.D.'
'Tilley, R.J.D.'
'Bennett, J.E.'
'Vente, J.F.'
'Sloan, J.'
_publ_section_title
;
 A-site cation-vacancy ordering in Sr1-3x/2 Lax Ti O3: a study by HRTEM
;
_journal_name_full               'Journal of Solid State Chemistry'
_journal_page_first              360
_journal_page_last               369
_journal_volume                  149
_journal_year                    2000
_chemical_formula_sum            'La0.6 O3 Sr0.1 Ti'
_chemical_name_systematic        '(Sr0.1 La0.6) (Ti O3)'
_space_group_IT_number           50
_symmetry_space_group_name_Hall  '-P 2ab 2b'
_symmetry_space_group_name_H-M   'P b a n :2'
_cell_angle_alpha                90
_cell_angle_beta                 90
_cell_angle_gamma                90
_cell_formula_units_Z            4
_cell_length_a                   5.4925
_cell_length_b                   5.4937
_cell_length_c                   7.7562
_cell_volume                     234.037
_citation_journal_id_ASTM        JSSCBI
_cod_data_source_file            Battle_JSSCBI_2000_1736.cif
_cod_data_source_block           La0.6O3Sr0.1Ti1
_cod_original_cell_volume        234.0367
_cod_original_formula_sum        'La0.6 O3 Sr0.1 Ti1'
_cod_database_code               1520832
loop_
_symmetry_equiv_pos_as_xyz
x,y,z
-x+1/2,-y+1/2,z
x,-y+1/2,-z
-x+1/2,y,-z
-x,-y,-z
x-1/2,y-1/2,-z
-x,y-1/2,z
x-1/2,-y,z
loop_
_atom_site_label
_atom_site_type_symbol
_atom_site_fract_x
_atom_site_fract_y
_atom_site_fract_z
_atom_site_occupancy
_atom_site_U_iso_or_equiv
Ti1 Ti+4 0.25 0.75 0.2386 1 0.0
O3 O-2 0.75 0.25 0 1 0.0
La2 La+3 0.25 0.25 0.5 0.719 0.0
Sr2 Sr+2 0.25 0.25 0.5 0.12 0.0
O2 O-2 0.75 0.25 0.5 1 0.0
O1 O-2 0 0 0.25 1 0.0
Sr1 Sr+2 0.25 0.25 0 0.08 0.0
La1 La+3 0.25 0.25 0 0.481 0.0
