#------------------------------------------------------------------------------
#$Date: 2016-02-13 21:28:24 +0200 (Sat, 13 Feb 2016) $
#$Revision: 176429 $
#$URL: svn://www.crystallography.net/cod/cif/1/52/09/1520908.cif $
#------------------------------------------------------------------------------
#
# This file is available in the Crystallography Open Database (COD),
# http://www.crystallography.net/
#
# All data on this site have been placed in the public domain by the
# contributors.
#
data_1520908
loop_
_publ_author_name
'Brinks, H.W.'
'Fjellvag, H.'
'Kjekshus, A.'
'Hauback, B.C.'
_publ_section_title
;
 Structure and magnetism of Pr1-x Srx Co O3-d
;
_journal_name_full               'Journal of Solid State Chemistry'
_journal_page_first              464
_journal_page_last               477
_journal_volume                  147
_journal_year                    1999
_chemical_formula_sum            'Co O3 Pr0.8 Sr0.2'
_chemical_name_systematic        '(Pr0.8 Sr0.2) (Co O3)'
_space_group_IT_number           62
_symmetry_space_group_name_Hall  '-P 2ac 2n'
_symmetry_space_group_name_H-M   'P n m a'
_cell_angle_alpha                90
_cell_angle_beta                 90
_cell_angle_gamma                90
_cell_formula_units_Z            4
_cell_length_a                   5.3649
_cell_length_b                   7.6062
_cell_length_c                   5.4089
_cell_volume                     220.718
_citation_journal_id_ASTM        JSSCBI
_cod_data_source_file            Brinks_JSSCBI_1999_334.cif
_cod_data_source_block           Co1O3Pr0.8Sr0.2
_cod_original_cell_volume        220.7183
_cod_original_formula_sum        'Co1 O3 Pr0.8 Sr0.2'
_cod_database_code               1520908
loop_
_symmetry_equiv_pos_as_xyz
x,y,z
-x+1/2,-y,z+1/2
x+1/2,-y+1/2,-z+1/2
-x,y+1/2,-z
-x,-y,-z
x-1/2,y,-z-1/2
-x-1/2,y-1/2,z-1/2
x,-y-1/2,z
loop_
_atom_site_label
_atom_site_type_symbol
_atom_site_fract_x
_atom_site_fract_y
_atom_site_fract_z
_atom_site_occupancy
_atom_site_U_iso_or_equiv
O1 O-2 0.0047 0.25 0.0599 1 0.0
Sr1 Sr+2 0.4806 0.25 -0.0033 0.2 0.0
Pr1 Pr+3 0.4806 0.25 -0.0033 0.8 0.0
Co1 Co+3 0 0 0 1 0.0
O2 O-2 0.2758 -0.0318 0.2251 1 0.0
