#------------------------------------------------------------------------------
#$Date: 2015-07-06 22:15:35 +0300 (Mon, 06 Jul 2015) $
#$Revision: 140332 $
#$URL: svn://www.crystallography.net/cod/cif/1/52/07/1520788.cif $
#------------------------------------------------------------------------------
#
# This file is available in the Crystallography Open Database (COD),
# http://www.crystallography.net/
#
# All data on this site have been placed in the public domain by the
# contributors.
#
data_1520788
loop_
_publ_author_name
'Arai, H.'
'Tsuda, M.'
'Sakurai, Y.'
_publ_section_title
;
 Lithium nickelate electrodes with enhanced high-temperature performance
 and thermal stability
;
_journal_name_full               'Journal of Power Sources'
_journal_page_first              76
_journal_page_last               81
_journal_volume                  90
_journal_year                    2000
_chemical_formula_sum            'Li1.02 Ni0.88 O2 Ti0.1'
_chemical_name_systematic        '(Li0.98 Ni0.02) (Li0.04 Ni0.86 Ti0.1) O2'
_space_group_IT_number           166
_symmetry_space_group_name_Hall  '-R 3 2"'
_symmetry_space_group_name_H-M   'R -3 m :H'
_cell_angle_alpha                90
_cell_angle_beta                 90
_cell_angle_gamma                120
_cell_formula_units_Z            3
_cell_length_a                   2.8766
_cell_length_b                   2.8766
_cell_length_c                   14.215
_cell_volume                     101.868
_citation_journal_id_ASTM        JPSODZ
_cod_data_source_file            Arai_JPSODZ_2000_1637.cif
_cod_data_source_block           Li1.02Ni0.88O2Ti0.1
_cod_original_cell_volume        101.8677
_cod_database_code               1520788
loop_
_symmetry_equiv_pos_as_xyz
x,y,z
-y,x-y,z
-x+y,-x,z
y,x,-z
-x,-x+y,-z
x-y,-y,-z
-x,-y,-z
y,-x+y,-z
x-y,x,-z
-y,-x,z
x,x-y,z
-x+y,y,z
x+2/3,y+1/3,z+1/3
-y+2/3,x-y+1/3,z+1/3
-x+y+2/3,-x+1/3,z+1/3
y+2/3,x+1/3,-z+1/3
-x+2/3,-x+y+1/3,-z+1/3
x-y+2/3,-y+1/3,-z+1/3
-x+2/3,-y+1/3,-z+1/3
y+2/3,-x+y+1/3,-z+1/3
x-y+2/3,x+1/3,-z+1/3
-y+2/3,-x+1/3,z+1/3
x+2/3,x-y+1/3,z+1/3
-x+y+2/3,y+1/3,z+1/3
x+1/3,y+2/3,z+2/3
-y+1/3,x-y+2/3,z+2/3
-x+y+1/3,-x+2/3,z+2/3
y+1/3,x+2/3,-z+2/3
-x+1/3,-x+y+2/3,-z+2/3
x-y+1/3,-y+2/3,-z+2/3
-x+1/3,-y+2/3,-z+2/3
y+1/3,-x+y+2/3,-z+2/3
x-y+1/3,x+2/3,-z+2/3
-y+1/3,-x+2/3,z+2/3
x+1/3,x-y+2/3,z+2/3
-x+y+1/3,y+2/3,z+2/3
loop_
_atom_site_label
_atom_site_type_symbol
_atom_site_fract_x
_atom_site_fract_y
_atom_site_fract_z
_atom_site_occupancy
_atom_site_U_iso_or_equiv
Ti1 Ti+3 0 0 0 0.1 0.0
O1 O-2 0 0 0.259 1 0.0
Ni1 Ni+3 0 0 0.5 0.02 0.0
Li2 Li+1 0 0 0 0.04 0.0
Ni2 Ni+3 0 0 0 0.86 0.0
Li1 Li+1 0 0 0.5 0.98 0.0
