#------------------------------------------------------------------------------
#$Date: 2016-02-13 21:28:24 +0200 (Sat, 13 Feb 2016) $
#$Revision: 176429 $
#$URL: svn://www.crystallography.net/cod/cif/1/52/09/1520951.cif $
#------------------------------------------------------------------------------
#
# This file is available in the Crystallography Open Database (COD),
# http://www.crystallography.net/
#
# All data on this site have been placed in the public domain by the
# contributors.
#
data_1520951
loop_
_publ_author_name
'Cherepanov, V.A.'
'Filonova, E.A.'
'Voronin, V.I.'
'Berger, I.F.'
_publ_section_title
;
 Phase equilibria in the (La Co O3) - (La Mn O3) -(Ba Co Oz) (Ba Mn O3)
 system
;
_journal_name_full               'Journal of Solid State Chemistry'
_journal_page_first              205
_journal_page_last               211
_journal_volume                  153
_journal_year                    2000
_chemical_formula_sum            'Ba0.15 La0.85 Mn O3'
_chemical_name_systematic        'La0.85 Ba0.15 Mn O3'
_space_group_IT_number           167
_symmetry_space_group_name_Hall  '-R 3 2"c'
_symmetry_space_group_name_H-M   'R -3 c :H'
_cell_angle_alpha                90
_cell_angle_beta                 90
_cell_angle_gamma                120
_cell_formula_units_Z            6
_cell_length_a                   5.5432
_cell_length_b                   5.5432
_cell_length_c                   13.425
_cell_volume                     357.245
_citation_journal_id_ASTM        JSSCBI
_cod_data_source_file            Cherepanov_JSSCBI_2000_1958.cif
_cod_data_source_block           Ba0.15La0.85Mn1O3
_cod_original_cell_volume        357.2449
_cod_original_formula_sum        'Ba0.15 La0.85 Mn1 O3'
_cod_database_code               1520951
loop_
_symmetry_equiv_pos_as_xyz
x,y,z
-y,x-y,z
-x+y,-x,z
y,x,-z+1/2
-x,-x+y,-z+1/2
x-y,-y,-z+1/2
-x,-y,-z
y,-x+y,-z
x-y,x,-z
-y,-x,z-1/2
x,x-y,z-1/2
-x+y,y,z-1/2
x+2/3,y+1/3,z+1/3
-y+2/3,x-y+1/3,z+1/3
-x+y+2/3,-x+1/3,z+1/3
y+2/3,x+1/3,-z+5/6
-x+2/3,-x+y+1/3,-z+5/6
x-y+2/3,-y+1/3,-z+5/6
-x+2/3,-y+1/3,-z+1/3
y+2/3,-x+y+1/3,-z+1/3
x-y+2/3,x+1/3,-z+1/3
-y+2/3,-x+1/3,z-1/6
x+2/3,x-y+1/3,z-1/6
-x+y+2/3,y+1/3,z-1/6
x+1/3,y+2/3,z+2/3
-y+1/3,x-y+2/3,z+2/3
-x+y+1/3,-x+2/3,z+2/3
y+1/3,x+2/3,-z+7/6
-x+1/3,-x+y+2/3,-z+7/6
x-y+1/3,-y+2/3,-z+7/6
-x+1/3,-y+2/3,-z+2/3
y+1/3,-x+y+2/3,-z+2/3
x-y+1/3,x+2/3,-z+2/3
-y+1/3,-x+2/3,z+1/6
x+1/3,x-y+2/3,z+1/6
-x+y+1/3,y+2/3,z+1/6
loop_
_atom_site_label
_atom_site_type_symbol
_atom_site_fract_x
_atom_site_fract_y
_atom_site_fract_z
_atom_site_occupancy
_atom_site_U_iso_or_equiv
Ba1 Ba+2 0 0 0.25 0.15 0.0
La1 La+3 0 0 0.25 0.85 0.0
Mn1 Mn+3 0 0 0 1 0.0
O1 O-2 0.456 0 0.25 1 0.0
