#------------------------------------------------------------------------------
#$Date: 2016-02-13 21:28:24 +0200 (Sat, 13 Feb 2016) $
#$Revision: 176429 $
#$URL: svn://www.crystallography.net/cod/cif/1/52/14/1521425.cif $
#------------------------------------------------------------------------------
#
# This file is available in the Crystallography Open Database (COD),
# http://www.crystallography.net/
#
# All data on this site have been placed in the public domain by the
# contributors.
#
data_1521425
loop_
_publ_author_name
'Knee, C.S.'
'Weller, M.T.'
_publ_section_title
;
 Synthesis and structure of a new family of nickelates: Tl (Ln2 Sr2)Ni2
 O9, Ln = La, Pr, Nd, Sm, Eu and Gd
;
_journal_name_full               'Journal of Solid State Chemistry'
_journal_page_first              1
_journal_page_last               13
_journal_volume                  150
_journal_year                    2000
_chemical_formula_sum            'Gd2 Ni2 O9 Sr2 Tl'
_chemical_name_systematic        'Tl (Gd2 Sr2) Ni2 O9'
_space_group_IT_number           139
_symmetry_space_group_name_Hall  '-I 4 2'
_symmetry_space_group_name_H-M   'I 4/m m m'
_cell_angle_alpha                90
_cell_angle_beta                 90
_cell_angle_gamma                90
_cell_formula_units_Z            2
_cell_length_a                   3.7667
_cell_length_b                   3.7667
_cell_length_c                   29.39
_cell_volume                     416.986
_citation_journal_id_ASTM        JSSCBI
_cod_data_source_file            Knee_JSSCBI_2000_1758.cif
_cod_data_source_block           Gd2Ni2O9Sr2Tl1
_cod_original_cell_volume        416.9862
_cod_original_formula_sum        'Gd2 Ni2 O9 Sr2 Tl1'
_cod_database_code               1521425
loop_
_symmetry_equiv_pos_as_xyz
x,y,z
-y,x,z
-x,-y,z
y,-x,z
x,-y,-z
y,x,-z
-x,y,-z
-y,-x,-z
-x,-y,-z
y,-x,-z
x,y,-z
-y,x,-z
-x,y,z
-y,-x,z
x,-y,z
y,x,z
x+1/2,y+1/2,z+1/2
-y+1/2,x+1/2,z+1/2
-x+1/2,-y+1/2,z+1/2
y+1/2,-x+1/2,z+1/2
x+1/2,-y+1/2,-z+1/2
y+1/2,x+1/2,-z+1/2
-x+1/2,y+1/2,-z+1/2
-y+1/2,-x+1/2,-z+1/2
-x+1/2,-y+1/2,-z+1/2
y+1/2,-x+1/2,-z+1/2
x+1/2,y+1/2,-z+1/2
-y+1/2,x+1/2,-z+1/2
-x+1/2,y+1/2,z+1/2
-y+1/2,-x+1/2,z+1/2
x+1/2,-y+1/2,z+1/2
y+1/2,x+1/2,z+1/2
loop_
_atom_site_label
_atom_site_type_symbol
_atom_site_fract_x
_atom_site_fract_y
_atom_site_fract_z
_atom_site_occupancy
_atom_site_U_iso_or_equiv
Gd2 Gd+3 0.5 0.5 0.2038 0.82 0.0
Sr2 Sr+2 0.5 0.5 0.2038 0.18 0.0
Sr1 Sr+2 0.5 0.5 0.0861 0.82 0.0
Tl1 Tl+3 0.048 0.048 0 0.25 0.0
O1 O-2 0.5 0.5 0 1 0.0
O3 O-2 0.5 0 0.1473 1 0.0
O2 O-2 0 0 0.0703 1 0.0
Gd1 Gd+3 0.5 0.5 0.0861 0.18 0.0
Ni1 Ni+2 0 0 0.1475 1 0.0
O4 O-2 0 0 0.2208 1 0.0
