#------------------------------------------------------------------------------
#$Date: 2016-02-13 21:28:24 +0200 (Sat, 13 Feb 2016) $
#$Revision: 176429 $
#$URL: svn://www.crystallography.net/cod/cif/1/52/14/1521420.cif $
#------------------------------------------------------------------------------
#
# This file is available in the Crystallography Open Database (COD),
# http://www.crystallography.net/
#
# All data on this site have been placed in the public domain by the
# contributors.
#
data_1521420
loop_
_publ_author_name
'Knee, C.S.'
'Weller, M.T.'
_publ_section_title
;
 Synthesis and structure of a new family of nickelates: Tl (Ln2 Sr2) Ni2
 O9, Ln= La, Pr, Nd, Sm, Eu and Gd
;
_journal_name_full               'Journal of Solid State Chemistry'
_journal_page_first              1
_journal_page_last               13
_journal_volume                  150
_journal_year                    2000
_chemical_formula_sum            'La2 Ni2 O9 Sr2 Tl'
_chemical_name_systematic        'Tl (La2 Sr2) Ni2 O9'
_space_group_IT_number           139
_symmetry_space_group_name_Hall  '-I 4 2'
_symmetry_space_group_name_H-M   'I 4/m m m'
_cell_angle_alpha                90
_cell_angle_beta                 90
_cell_angle_gamma                90
_cell_formula_units_Z            2
_cell_length_a                   3.8069
_cell_length_b                   3.8069
_cell_length_c                   30.055
_cell_volume                     435.572
_citation_journal_id_ASTM        JSSCBI
_cod_data_source_file            Knee_JSSCBI_2000_1753.cif
_cod_data_source_block           La2Ni2O9Sr2Tl1
_cod_original_cell_volume        435.5717
_cod_original_formula_sum        'La2 Ni2 O9 Sr2 Tl1'
_cod_database_code               1521420
loop_
_symmetry_equiv_pos_as_xyz
x,y,z
-y,x,z
-x,-y,z
y,-x,z
x,-y,-z
y,x,-z
-x,y,-z
-y,-x,-z
-x,-y,-z
y,-x,-z
x,y,-z
-y,x,-z
-x,y,z
-y,-x,z
x,-y,z
y,x,z
x+1/2,y+1/2,z+1/2
-y+1/2,x+1/2,z+1/2
-x+1/2,-y+1/2,z+1/2
y+1/2,-x+1/2,z+1/2
x+1/2,-y+1/2,-z+1/2
y+1/2,x+1/2,-z+1/2
-x+1/2,y+1/2,-z+1/2
-y+1/2,-x+1/2,-z+1/2
-x+1/2,-y+1/2,-z+1/2
y+1/2,-x+1/2,-z+1/2
x+1/2,y+1/2,-z+1/2
-y+1/2,x+1/2,-z+1/2
-x+1/2,y+1/2,z+1/2
-y+1/2,-x+1/2,z+1/2
x+1/2,-y+1/2,z+1/2
y+1/2,x+1/2,z+1/2
loop_
_atom_site_label
_atom_site_type_symbol
_atom_site_fract_x
_atom_site_fract_y
_atom_site_fract_z
_atom_site_occupancy
_atom_site_U_iso_or_equiv
O2 O-2 0 0 0.0716 1 0.0
Tl1 Tl+3 0.054 0.054 0 0.25 0.0
Sr1 Sr+2 0.5 0.5 0.085 0.68 0.0
Ni1 Ni+2 0 0 0.1459 1 0.0
O3 O-2 0.5 0 0.144 1 0.0
O4 O-2 0 0 0.217 1 0.0
La1 La+3 0.5 0.5 0.085 0.32 0.0
Sr2 Sr+2 0.5 0.5 0.2033 0.32 0.0
O1 O-2 0.5 0.5 0 1 0.0
La2 La+3 0.5 0.5 0.2033 0.68 0.0
