#------------------------------------------------------------------------------
#$Date: 2016-02-13 21:28:24 +0200 (Sat, 13 Feb 2016) $
#$Revision: 176429 $
#$URL: svn://www.crystallography.net/cod/cif/1/52/16/1521653.cif $
#------------------------------------------------------------------------------
#
# This file is available in the Crystallography Open Database (COD),
# http://www.crystallography.net/
#
# All data on this site have been placed in the public domain by the
# contributors.
#
data_1521653
loop_
_publ_author_name
'Napoletano, M.'
'Magnone, E.'
'Gallardo Amores, J.M.'
'Busca, G.'
'Ferretti, M.'
_publ_section_title
;
 Skeletal infrared spectra and structural properties of La2-x Srx Cu O4
 and La2-x Bax Cu O4 cuprate powders in the 0 < x < 0.125 region
;
_journal_name_full               'Physica C (Amsterdam)'
_journal_page_first              229
_journal_page_last               237
_journal_volume                  319
_journal_year                    1999
_chemical_formula_sum            'Ba0.13 Cu La1.87 O4'
_chemical_name_systematic        '(La1.87 Ba0.13) (Cu O4)'
_space_group_IT_number           139
_symmetry_space_group_name_Hall  '-I 4 2'
_symmetry_space_group_name_H-M   'I 4/m m m'
_cell_angle_alpha                90
_cell_angle_beta                 90
_cell_angle_gamma                90
_cell_formula_units_Z            2
_cell_length_a                   5.351
_cell_length_b                   5.351
_cell_length_c                   13.26
_cell_volume                     379.676
_citation_journal_id_ASTM        PHYCE6
_cod_data_source_file            Napoletano_PHYCE6_1999_630.cif
_cod_data_source_block           Ba0.13Cu1La1.87O4
_cod_original_cell_volume        379.6762
_cod_original_formula_sum        'Ba0.13 Cu1 La1.87 O4'
_cod_database_code               1521653
loop_
_symmetry_equiv_pos_as_xyz
x,y,z
-y,x,z
-x,-y,z
y,-x,z
x,-y,-z
y,x,-z
-x,y,-z
-y,-x,-z
-x,-y,-z
y,-x,-z
x,y,-z
-y,x,-z
-x,y,z
-y,-x,z
x,-y,z
y,x,z
x+1/2,y+1/2,z+1/2
-y+1/2,x+1/2,z+1/2
-x+1/2,-y+1/2,z+1/2
y+1/2,-x+1/2,z+1/2
x+1/2,-y+1/2,-z+1/2
y+1/2,x+1/2,-z+1/2
-x+1/2,y+1/2,-z+1/2
-y+1/2,-x+1/2,-z+1/2
-x+1/2,-y+1/2,-z+1/2
y+1/2,-x+1/2,-z+1/2
x+1/2,y+1/2,-z+1/2
-y+1/2,x+1/2,-z+1/2
-x+1/2,y+1/2,z+1/2
-y+1/2,-x+1/2,z+1/2
x+1/2,-y+1/2,z+1/2
y+1/2,x+1/2,z+1/2
loop_
_atom_site_label
_atom_site_type_symbol
_atom_site_fract_x
_atom_site_fract_y
_atom_site_fract_z
_atom_site_occupancy
_atom_site_U_iso_or_equiv
Ba1 Ba+2 0 0 0.361 0.065 0.0
Cu1 Cu+2 0 0 0 1 0.0
O2 O-2 0 0 0.184 1 0.0
O1 O-2 0 0.5 0 1 0.0
La1 La+3 0 0 0.361 0.935 0.0
