#------------------------------------------------------------------------------
#$Date: 2016-02-13 21:28:24 +0200 (Sat, 13 Feb 2016) $
#$Revision: 176429 $
#$URL: svn://www.crystallography.net/cod/cif/1/52/18/1521813.cif $
#------------------------------------------------------------------------------
#
# This file is available in the Crystallography Open Database (COD),
# http://www.crystallography.net/
#
# All data on this site have been placed in the public domain by the
# contributors.
#
data_1521813
loop_
_publ_author_name
'Ramanujachary, K.V.'
'Khalid, S.'
'Sunstrom, J.E.'
'Herber, R.H.'
'Fawcett, I.'
'Shuk, P.'
'Greenblatt, M.'
'Croft, M.'
'Nowik, I.'
_publ_section_title
;
 Magnetic and electrical properties of Eu2 V O4
;
_journal_name_full               'Materials Research Bulletin'
_journal_page_first              803
_journal_page_last               816
_journal_volume                  34
_journal_year                    1999
_chemical_formula_sum            'Eu2 O4 V'
_chemical_name_systematic        'Eu2 (V O4)'
_space_group_IT_number           139
_symmetry_space_group_name_Hall  '-I 4 2'
_symmetry_space_group_name_H-M   'I 4/m m m'
_cell_angle_alpha                90
_cell_angle_beta                 90
_cell_angle_gamma                90
_cell_formula_units_Z            2
_cell_length_a                   3.8551
_cell_length_b                   3.8551
_cell_length_c                   12.3056
_cell_volume                     182.883
_citation_journal_id_ASTM        MRBUAC
_cod_data_source_file            Ramanujachary_MRBUAC_1999_535.cif
_cod_data_source_block           Eu2O4V1
_cod_original_cell_volume        182.8833
_cod_original_formula_sum        'Eu2 O4 V1'
_cod_database_code               1521813
loop_
_symmetry_equiv_pos_as_xyz
x,y,z
-y,x,z
-x,-y,z
y,-x,z
x,-y,-z
y,x,-z
-x,y,-z
-y,-x,-z
-x,-y,-z
y,-x,-z
x,y,-z
-y,x,-z
-x,y,z
-y,-x,z
x,-y,z
y,x,z
x+1/2,y+1/2,z+1/2
-y+1/2,x+1/2,z+1/2
-x+1/2,-y+1/2,z+1/2
y+1/2,-x+1/2,z+1/2
x+1/2,-y+1/2,-z+1/2
y+1/2,x+1/2,-z+1/2
-x+1/2,y+1/2,-z+1/2
-y+1/2,-x+1/2,-z+1/2
-x+1/2,-y+1/2,-z+1/2
y+1/2,-x+1/2,-z+1/2
x+1/2,y+1/2,-z+1/2
-y+1/2,x+1/2,-z+1/2
-x+1/2,y+1/2,z+1/2
-y+1/2,-x+1/2,z+1/2
x+1/2,-y+1/2,z+1/2
y+1/2,x+1/2,z+1/2
loop_
_atom_site_label
_atom_site_type_symbol
_atom_site_fract_x
_atom_site_fract_y
_atom_site_fract_z
_atom_site_occupancy
_atom_site_U_iso_or_equiv
Eu1 Eu+2 0 0 0.356 1 0.0
O2 O-2 0 0.5 0 1 0.0
V1 V+3 0 0 0 1 0.0
O1 O-2 0 0 0.166 1 0.0
