#------------------------------------------------------------------------------
#$Date: 2016-03-10 15:47:34 +0200 (Thu, 10 Mar 2016) $
#$Revision: 178088 $
#$URL: svn://www.crystallography.net/cod/cif/1/52/13/1521349.cif $
#------------------------------------------------------------------------------
#
# This file is available in the Crystallography Open Database (COD),
# http://www.crystallography.net/
#
# All data on this site have been placed in the public domain by the
# contributors.
#
data_1521349
loop_
_publ_author_name
'Kaduk, J.A.'
'Wong-Ng, W.'
'Toby, B.H.'
'Dillingham, J.'
'Greenwood, W.'
_publ_section_title
;
 Crystal structures and reference powder patterns of Ba R2 Zn O5 (R = La,
 Nd, Sm, Eu, Gd, Dy, Ho, Y, Er and Tm)
;
_journal_name_full
;
Journal of Research of the National Institute of standards and Technology
;
_journal_page_first              147
_journal_page_last               171
_journal_paper_doi               10.6028/jres.104.011
_journal_volume                  104
_journal_year                    1999
_chemical_formula_sum            'Ba Gd2 O5 Zn'
_chemical_name_systematic        'Ba Gd2 Zn O5'
_space_group_IT_number           62
_symmetry_space_group_name_Hall  '-P 2c 2ab'
_symmetry_space_group_name_H-M   'P b n m'
_cell_angle_alpha                90
_cell_angle_beta                 90
_cell_angle_gamma                90
_cell_formula_units_Z            4
_cell_length_a                   7.15729
_cell_length_b                   12.49393
_cell_length_c                   5.77424
_cell_volume                     516.348
_citation_journal_id_ASTM        JRITEF
_exptl_crystal_thermal_history
;
 annealed at 850 C for 2 days, 950 C for 3 days, 1000 C for 1.5 days
;
_pd_proc_ls_prof_R_factor        0.0627
_pd_proc_ls_prof_wR_factor       0.0811
_cod_data_source_file            Kaduk_JRITEF_1999_242.cif
_cod_data_source_block           Ba1Gd2O5Zn1
_cod_original_sg_symbol_Hall     '-P 2ac 2n (z,x,y)'
_cod_original_formula_sum        'Ba1 Gd2 O5 Zn1'
_cod_database_code               1521349
loop_
_symmetry_equiv_pos_as_xyz
x,y,z
x+1/2,-y+1/2,-z
-x+1/2,y+1/2,-z+1/2
-x,-y,z+1/2
-x,-y,-z
-x-1/2,y-1/2,z
x-1/2,-y-1/2,z-1/2
x,y,-z-1/2
loop_
_atom_site_label
_atom_site_type_symbol
_atom_site_fract_x
_atom_site_fract_y
_atom_site_fract_z
_atom_site_occupancy
_atom_site_U_iso_or_equiv
O2 O-2 0.3547 0.2225 0.5023 1 0.0
Gd1 Gd+3 0.1196 0.293 0.25 1 0.0
Zn1 Zn+2 0.6909 0.649 0.25 1 0.0
O1 O-2 0.1657 0.4323 -0.0018 1 0.0
O3 O-2 0.0748 0.0991 0.25 1 0.0
Gd2 Gd+3 0.3977 0.0745 0.25 1 0.0
Ba1 Ba+2 0.9241 0.9006 0.25 1 0.0
