#------------------------------------------------------------------------------
#$Date: 2015-07-10 14:04:51 +0300 (Fri, 10 Jul 2015) $
#$Revision: 141923 $
#$URL: svn://www.crystallography.net/cod/cif/1/52/17/1521709.cif $
#------------------------------------------------------------------------------
#
# This file is available in the Crystallography Open Database (COD),
# http://www.crystallography.net/
#
# All data on this site have been placed in the public domain by the
# contributors.
#
data_1521709
loop_
_publ_author_name
'Oyama, T.'
'Takeuchi, K.'
'Iimura, Y.'
'Ishii, T.'
_publ_section_title
;
 Synthesis of (Crx V1-x)2 O3 fine particles by a laser-induced vapor-phase
 reaction and their crystal structure
;
_journal_name_full               'Journal of Materials Science'
_journal_page_first              439
_journal_page_last               444
_journal_volume                  34
_journal_year                    1999
_chemical_formula_sum            'Cr0.3 O3 V1.7'
_chemical_name_systematic        '(Cr0.15 V0.85)2 O3'
_space_group_IT_number           167
_symmetry_space_group_name_Hall  '-R 3 2"c'
_symmetry_space_group_name_H-M   'R -3 c :H'
_cell_angle_alpha                90
_cell_angle_beta                 90
_cell_angle_gamma                120
_cell_formula_units_Z            6
_cell_length_a                   4.99532
_cell_length_b                   4.99532
_cell_length_c                   13.8748
_cell_volume                     299.836
_citation_journal_id_ASTM        JMTSAS
_cod_data_source_file            Oyama_JMTSAS_1999_184.cif
_cod_data_source_block           Cr0.3O3V1.7
_cod_original_cell_volume        299.8361
_cod_database_code               1521709
loop_
_symmetry_equiv_pos_as_xyz
x,y,z
-y,x-y,z
-x+y,-x,z
y,x,-z+1/2
-x,-x+y,-z+1/2
x-y,-y,-z+1/2
-x,-y,-z
y,-x+y,-z
x-y,x,-z
-y,-x,z-1/2
x,x-y,z-1/2
-x+y,y,z-1/2
x+2/3,y+1/3,z+1/3
-y+2/3,x-y+1/3,z+1/3
-x+y+2/3,-x+1/3,z+1/3
y+2/3,x+1/3,-z+5/6
-x+2/3,-x+y+1/3,-z+5/6
x-y+2/3,-y+1/3,-z+5/6
-x+2/3,-y+1/3,-z+1/3
y+2/3,-x+y+1/3,-z+1/3
x-y+2/3,x+1/3,-z+1/3
-y+2/3,-x+1/3,z-1/6
x+2/3,x-y+1/3,z-1/6
-x+y+2/3,y+1/3,z-1/6
x+1/3,y+2/3,z+2/3
-y+1/3,x-y+2/3,z+2/3
-x+y+1/3,-x+2/3,z+2/3
y+1/3,x+2/3,-z+7/6
-x+1/3,-x+y+2/3,-z+7/6
x-y+1/3,-y+2/3,-z+7/6
-x+1/3,-y+2/3,-z+2/3
y+1/3,-x+y+2/3,-z+2/3
x-y+1/3,x+2/3,-z+2/3
-y+1/3,-x+2/3,z+1/6
x+1/3,x-y+2/3,z+1/6
-x+y+1/3,y+2/3,z+1/6
loop_
_atom_site_label
_atom_site_type_symbol
_atom_site_fract_x
_atom_site_fract_y
_atom_site_fract_z
_atom_site_occupancy
_atom_site_U_iso_or_equiv
O1 O-2 0.307 0 0.25 1 0.0
V1 V+3 0 0 0.3487 0.85 0.0
Cr1 Cr+3 0 0 0.3487 0.15 0.0
