#------------------------------------------------------------------------------
#$Date: 2016-02-13 21:28:24 +0200 (Sat, 13 Feb 2016) $
#$Revision: 176429 $
#$URL: svn://www.crystallography.net/cod/cif/1/52/13/1521323.cif $
#------------------------------------------------------------------------------
#
# This file is available in the Crystallography Open Database (COD),
# http://www.crystallography.net/
#
# All data on this site have been placed in the public domain by the
# contributors.
#
data_1521323
loop_
_publ_author_name
'Millburn, J.E.'
'Rosseinsky, M.J.'
'Green, M.A.'
'Neumann, D.A.'
_publ_section_title
;
 Evolution of the structure of the K2 Ni F4 phases La2-x Srx Ni O4+d with
 oxidation state: octahedral distortion and phase separation (0.2 < x <
 1.0)
;
_journal_name_full               'Journal of Solid State Chemistry'
_journal_page_first              401
_journal_page_last               420
_journal_volume                  145
_journal_year                    1999
_chemical_formula_sum            'La Ni O3.914 Sr'
_chemical_name_systematic        'La Sr Ni O3.914'
_space_group_IT_number           139
_symmetry_space_group_name_Hall  '-I 4 2'
_symmetry_space_group_name_H-M   'I 4/m m m'
_cell_angle_alpha                90
_cell_angle_beta                 90
_cell_angle_gamma                90
_cell_formula_units_Z            2
_cell_length_a                   3.82428
_cell_length_b                   3.82428
_cell_length_c                   12.4283
_cell_volume                     181.765
_citation_journal_id_ASTM        JSSCBI
_cod_data_source_file            Millburn_JSSCBI_1999_256.cif
_cod_data_source_block           La1Ni1O3.914Sr1
_cod_original_cell_volume        181.7654
_cod_original_formula_sum        'La1 Ni1 O3.914 Sr1'
_cod_database_code               1521323
loop_
_symmetry_equiv_pos_as_xyz
x,y,z
-y,x,z
-x,-y,z
y,-x,z
x,-y,-z
y,x,-z
-x,y,-z
-y,-x,-z
-x,-y,-z
y,-x,-z
x,y,-z
-y,x,-z
-x,y,z
-y,-x,z
x,-y,z
y,x,z
x+1/2,y+1/2,z+1/2
-y+1/2,x+1/2,z+1/2
-x+1/2,-y+1/2,z+1/2
y+1/2,-x+1/2,z+1/2
x+1/2,-y+1/2,-z+1/2
y+1/2,x+1/2,-z+1/2
-x+1/2,y+1/2,-z+1/2
-y+1/2,-x+1/2,-z+1/2
-x+1/2,-y+1/2,-z+1/2
y+1/2,-x+1/2,-z+1/2
x+1/2,y+1/2,-z+1/2
-y+1/2,x+1/2,-z+1/2
-x+1/2,y+1/2,z+1/2
-y+1/2,-x+1/2,z+1/2
x+1/2,-y+1/2,z+1/2
y+1/2,x+1/2,z+1/2
loop_
_atom_site_label
_atom_site_type_symbol
_atom_site_fract_x
_atom_site_fract_y
_atom_site_fract_z
_atom_site_occupancy
_atom_site_U_iso_or_equiv
O1 O-2 0 0 0.1639 0.947 0.0
La1 La+3 0 0 0.36163 0.5 0.0
Sr1 Sr+2 0 0 0.36163 0.5 0.0
O2 O-2 0 0.5 0 1.01 0.0
Ni1 Ni+2 0 0 0 1 0.0
