#------------------------------------------------------------------------------
#$Date: 2016-03-10 15:47:34 +0200 (Thu, 10 Mar 2016) $
#$Revision: 178088 $
#$URL: svn://www.crystallography.net/cod/cif/1/52/13/1521352.cif $
#------------------------------------------------------------------------------
#
# This file is available in the Crystallography Open Database (COD),
# http://www.crystallography.net/
#
# All data on this site have been placed in the public domain by the
# contributors.
#
data_1521352
loop_
_publ_author_name
'Kaduk, J.A.'
'Wong-Ng, W.'
'Greenwood, W.'
'Dillingham, J.'
'Toby, B.H.'
_publ_section_title
;
 Crystal structures and reference powder patterns of Ba R2 Zn O5 (R = La,
 Nd, Sm, Eu, Gd, Dy, Ho, Y, Er and Tm)
;
_journal_name_full
;
Journal of Research of the National Institute of standards and Technology
;
_journal_page_first              147
_journal_page_last               171
_journal_paper_doi               10.6028/jres.104.011
_journal_volume                  104
_journal_year                    1999
_chemical_formula_sum            'Ba Er2 O5 Zn'
_chemical_name_systematic        'Ba Er2 Zn O5'
_space_group_IT_number           62
_symmetry_space_group_name_Hall  '-P 2c 2ab'
_symmetry_space_group_name_H-M   'P b n m'
_cell_angle_alpha                90
_cell_angle_beta                 90
_cell_angle_gamma                90
_cell_formula_units_Z            4
_cell_length_a                   7.04515
_cell_length_b                   12.29815
_cell_length_c                   5.6941
_cell_volume                     493.350
_citation_journal_id_ASTM        JRITEF
_exptl_crystal_thermal_history
;
 annealed at 850 C for 2 days, 950 C for 3 days, 1000 C for 1.5 days,
 1080 C for 5 days, 1090 C for 1.5 days
;
_pd_proc_ls_prof_R_factor        0.0524
_pd_proc_ls_prof_wR_factor       0.0712
_cod_data_source_file            Kaduk_JRITEF_1999_244.cif
_cod_data_source_block           Ba1Er2O5Zn1
_cod_original_cell_volume        493.35
_cod_original_sg_symbol_Hall     '-P 2ac 2n (z,x,y)'
_cod_original_formula_sum        'Ba1 Er2 O5 Zn1'
_cod_database_code               1521352
loop_
_symmetry_equiv_pos_as_xyz
x,y,z
x+1/2,-y+1/2,-z
-x+1/2,y+1/2,-z+1/2
-x,-y,z+1/2
-x,-y,-z
-x-1/2,y-1/2,z
x-1/2,-y-1/2,z-1/2
x,y,-z-1/2
loop_
_atom_site_label
_atom_site_type_symbol
_atom_site_fract_x
_atom_site_fract_y
_atom_site_fract_z
_atom_site_occupancy
_atom_site_U_iso_or_equiv
Ba1 Ba+2 0.9239 0.8989 0.25 1 0.0
O2 O-2 0.3607 0.225 0.503 1 0.0
O1 O-2 0.1744 0.4312 -0.005 1 0.0
Er1 Er+3 0.1205 0.2924 0.25 1 0.0
Er2 Er+3 0.4001 0.0744 0.25 1 0.0
O3 O-2 0.0776 0.0997 0.25 1 0.0
Zn1 Zn+2 0.6927 0.6493 0.25 1 0.0
