#------------------------------------------------------------------------------
#$Date: 2016-02-13 21:28:24 +0200 (Sat, 13 Feb 2016) $
#$Revision: 176429 $
#$URL: svn://www.crystallography.net/cod/cif/1/52/17/1521744.cif $
#------------------------------------------------------------------------------
#
# This file is available in the Crystallography Open Database (COD),
# http://www.crystallography.net/
#
# All data on this site have been placed in the public domain by the
# contributors.
#
data_1521744
loop_
_publ_author_name
'Perez-Cacho, J.'
'Sanchez, R.'
'Blasco, J.'
'Garcia, J.'
_publ_section_title
;
 Relationships between structure and physical properties in Sm Ni1-xCox O3
;
_journal_name_full               'Journal of Solid State Chemistry'
_journal_page_first              145
_journal_page_last               153
_journal_volume                  150
_journal_year                    2000
_chemical_formula_sum            'Co O3 Sm'
_chemical_name_systematic        'Sm (Co O3)'
_space_group_IT_number           62
_symmetry_space_group_name_Hall  '-P 2c 2ab'
_symmetry_space_group_name_H-M   'P b n m'
_cell_angle_alpha                90
_cell_angle_beta                 90
_cell_angle_gamma                90
_cell_formula_units_Z            4
_cell_length_a                   5.2831
_cell_length_b                   5.3502
_cell_length_c                   7.4962
_cell_volume                     211.885
_citation_journal_id_ASTM        JSSCBI
_cod_data_source_file            Perez-Cacho_JSSCBI_2000_1775.cif
_cod_data_source_block           Co1O3Sm1
_cod_original_cell_volume        211.8849
_cod_original_sg_symbol_Hall     '-P 2ac 2n (z,x,y)'
_cod_original_formula_sum        'Co1 O3 Sm1'
_cod_database_code               1521744
loop_
_symmetry_equiv_pos_as_xyz
x,y,z
x+1/2,-y+1/2,-z
-x+1/2,y+1/2,-z+1/2
-x,-y,z+1/2
-x,-y,-z
-x-1/2,y-1/2,z
x-1/2,-y-1/2,z-1/2
x,y,-z-1/2
loop_
_atom_site_label
_atom_site_type_symbol
_atom_site_fract_x
_atom_site_fract_y
_atom_site_fract_z
_atom_site_occupancy
_atom_site_U_iso_or_equiv
Co1 Co+3 0.5 0 0 1 0.0
Sm1 Sm+3 0.9908 0.0467 0.25 1 0.0
O1 O-2 0.083 0.488 0.25 1 0.0
O2 O-2 0.708 0.289 0.0392 1 0.0
