#------------------------------------------------------------------------------
#$Date: 2016-02-13 21:28:24 +0200 (Sat, 13 Feb 2016) $
#$Revision: 176429 $
#$URL: svn://www.crystallography.net/cod/cif/1/52/13/1521389.cif $
#------------------------------------------------------------------------------
#
# This file is available in the Crystallography Open Database (COD),
# http://www.crystallography.net/
#
# All data on this site have been placed in the public domain by the
# contributors.
#
data_1521389
loop_
_publ_author_name
'Kennedy, B.J.'
'Howard, C.J.'
'Chakoumakos, B.C.'
_publ_section_title
;
 High-temperature phase transitions in Sr Zr O3
;
_journal_name_full
'Physical Review, Serie 3. B - Condensed Matter (18,1978-)'
_journal_page_first              4023
_journal_page_last               4027
_journal_volume                  59
_journal_year                    1999
_chemical_formula_sum            'O3 Sr Zr'
_chemical_name_systematic        'Sr (Zr O3)'
_space_group_IT_number           221
_symmetry_space_group_name_Hall  '-P 4 2 3'
_symmetry_space_group_name_H-M   'P m -3 m'
_cell_angle_alpha                90
_cell_angle_beta                 90
_cell_angle_gamma                90
_cell_formula_units_Z            1
_cell_length_a                   4.1514
_cell_length_b                   4.1514
_cell_length_c                   4.1514
_cell_volume                     71.546
_citation_journal_id_ASTM        PRBMDO
_cod_data_source_file            Kennedy_PRBMDO_1999_701.cif
_cod_data_source_block           O3Sr1Zr1
_cod_original_cell_volume        71.54574
_cod_original_formula_sum        'O3 Sr1 Zr1'
_cod_database_code               1521389
loop_
_symmetry_equiv_pos_as_xyz
x,y,z
-y,x,z
-x,-y,z
y,-x,z
x,-y,-z
y,x,-z
-x,y,-z
-y,-x,-z
z,x,y
-x,z,y
-z,-x,y
x,-z,y
z,-x,-y
x,z,-y
-z,x,-y
-x,-z,-y
y,z,x
y,-z,-x
z,y,-x
-y,z,-x
-z,-y,-x
-y,-z,x
z,-y,x
-z,y,x
-x,-y,-z
y,-x,-z
x,y,-z
-y,x,-z
-x,y,z
-y,-x,z
x,-y,z
y,x,z
-z,-x,-y
x,-z,-y
z,x,-y
-x,z,-y
-z,x,y
-x,-z,y
z,-x,y
x,z,y
-y,-z,-x
-y,z,x
-z,-y,x
y,-z,x
z,y,x
y,z,-x
-z,y,-x
z,-y,-x
loop_
_atom_site_label
_atom_site_type_symbol
_atom_site_fract_x
_atom_site_fract_y
_atom_site_fract_z
_atom_site_occupancy
_atom_site_U_iso_or_equiv
Zr1 Zr+4 0 0 0 1 0.0
Sr1 Sr+2 0.5 0.5 0.5 1 0.0
O1 O-2 0.5 0 0 1 0.0
