#------------------------------------------------------------------------------
#$Date: 2016-02-13 21:28:24 +0200 (Sat, 13 Feb 2016) $
#$Revision: 176429 $
#$URL: svn://www.crystallography.net/cod/cif/1/52/12/1521258.cif $
#------------------------------------------------------------------------------
#
# This file is available in the Crystallography Open Database (COD),
# http://www.crystallography.net/
#
# All data on this site have been placed in the public domain by the
# contributors.
#
data_1521258
loop_
_publ_author_name
'Iwanaga, D.'
'Inaguma, Y.'
'Itoh, M.'
_publ_section_title
;
 Crystal structure and magnetic properties of B-site ordered
 perovskite-type oxides A2 Cu B' O6 (A = Ba, Sr; B'= W, Te)
;
_journal_name_full               'Journal of Solid State Chemistry'
_journal_page_first              291
_journal_page_last               295
_journal_volume                  147
_journal_year                    1999
_chemical_formula_sum            'Cu O6 Sr2 W'
_chemical_name_systematic        'Sr2 Cu (W O6)'
_space_group_IT_number           87
_symmetry_space_group_name_Hall  '-I 4'
_symmetry_space_group_name_H-M   'I 4/m'
_cell_angle_alpha                90
_cell_angle_beta                 90
_cell_angle_gamma                90
_cell_formula_units_Z            2
_cell_length_a                   5.429
_cell_length_b                   5.429
_cell_length_c                   8.4155
_cell_volume                     248.039
_citation_journal_id_ASTM        JSSCBI
_cod_data_source_file            Iwanaga_JSSCBI_1999_304.cif
_cod_data_source_block           Cu1O6Sr2W1
_cod_original_cell_volume        248.0388
_cod_original_formula_sum        'Cu1 O6 Sr2 W1'
_cod_database_code               1521258
loop_
_symmetry_equiv_pos_as_xyz
x,y,z
-y,x,z
-x,-y,z
y,-x,z
-x,-y,-z
y,-x,-z
x,y,-z
-y,x,-z
x+1/2,y+1/2,z+1/2
-y+1/2,x+1/2,z+1/2
-x+1/2,-y+1/2,z+1/2
y+1/2,-x+1/2,z+1/2
-x+1/2,-y+1/2,-z+1/2
y+1/2,-x+1/2,-z+1/2
x+1/2,y+1/2,-z+1/2
-y+1/2,x+1/2,-z+1/2
loop_
_atom_site_label
_atom_site_type_symbol
_atom_site_fract_x
_atom_site_fract_y
_atom_site_fract_z
_atom_site_occupancy
_atom_site_U_iso_or_equiv
Sr1 Sr+2 0 0.5 0.25 1 0.0
Cu1 Cu+2 0 0 0 1 0.0
O1 O-2 0 0 0.276 1 0.0
W1 W+6 0 0 0.5 1 0.0
O2 O-2 0.289 0.213 0 1 0.0
