#------------------------------------------------------------------------------
#$Date: 2015-07-07 16:05:31 +0300 (Tue, 07 Jul 2015) $
#$Revision: 140827 $
#$URL: svn://www.crystallography.net/cod/cif/1/52/11/1521160.cif $
#------------------------------------------------------------------------------
#
# This file is available in the Crystallography Open Database (COD),
# http://www.crystallography.net/
#
# All data on this site have been placed in the public domain by the
# contributors.
#
data_1521160
loop_
_publ_author_name
'Hirata, T.'
_publ_section_title
;
 Oxygen position, octahedral distortion, and bond-valence parameter from
 bond lengths in Ti1-x Snx O2 (0<x<1)
;
_journal_name_full               'Journal of the American Ceramic Society'
_journal_page_first              3205
_journal_page_last               3207
_journal_volume                  83
_journal_year                    2000
_chemical_formula_sum            'O2 Sn0.2 Ti0.8'
_chemical_name_systematic        '(Ti0.8 Sn0.2) O2'
_space_group_IT_number           136
_symmetry_space_group_name_Hall  '-P 4n 2n'
_symmetry_space_group_name_H-M   'P 42/m n m'
_cell_angle_alpha                90
_cell_angle_beta                 90
_cell_angle_gamma                90
_cell_formula_units_Z            2
_cell_length_a                   4.6229
_cell_length_b                   4.6229
_cell_length_c                   3.0044
_cell_volume                     64.208
_citation_journal_id_ASTM        JACTAW
_cod_data_source_file            Hirata_JACTAW_2000_1692.cif
_cod_data_source_block           O2Sn0.2Ti0.8
_cod_original_cell_volume        64.20765
_cod_database_code               1521160
loop_
_symmetry_equiv_pos_as_xyz
x,y,z
-y+1/2,x+1/2,z+1/2
-x,-y,z
y+1/2,-x+1/2,z+1/2
x+1/2,-y+1/2,-z+1/2
y,x,-z
-x+1/2,y+1/2,-z+1/2
-y,-x,-z
-x,-y,-z
y-1/2,-x-1/2,-z-1/2
x,y,-z
-y-1/2,x-1/2,-z-1/2
-x-1/2,y-1/2,z-1/2
-y,-x,z
x-1/2,-y-1/2,z-1/2
y,x,z
loop_
_atom_site_label
_atom_site_type_symbol
_atom_site_fract_x
_atom_site_fract_y
_atom_site_fract_z
_atom_site_occupancy
_atom_site_U_iso_or_equiv
O1 O-2 0.3053 0.3053 0 1 0.0
Ti1 Ti+4 0 0 0 0.8 0.0
Sn1 Sn+4 0 0 0 0.2 0.0
