#------------------------------------------------------------------------------
#$Date: 2016-02-13 21:28:24 +0200 (Sat, 13 Feb 2016) $
#$Revision: 176429 $
#$URL: svn://www.crystallography.net/cod/cif/1/52/18/1521819.cif $
#------------------------------------------------------------------------------
#
# This file is available in the Crystallography Open Database (COD),
# http://www.crystallography.net/
#
# All data on this site have been placed in the public domain by the
# contributors.
#
data_1521819
loop_
_publ_author_name
'Rao, G.-H.'
'Baerner, K.'
'Sun, J.R.'
'Hamad, N.'
_publ_section_title
;
 Crystal structure and magnetoresistance of Na-doped La Mn O3
;
_journal_name_full               'Journal of Physics: Condensed Matter'
_journal_page_first              1523
_journal_page_last               1528
_journal_volume                  11
_journal_year                    1999
_chemical_formula_sum            'La0.9 Mn Na0.1 O3'
_chemical_name_systematic        'La0.9 Na0.1 Mn O3'
_space_group_IT_number           167
_symmetry_space_group_name_Hall  '-R 3 2"c'
_symmetry_space_group_name_H-M   'R -3 c :H'
_cell_angle_alpha                90
_cell_angle_beta                 90
_cell_angle_gamma                120
_cell_formula_units_Z            6
_cell_length_a                   5.5263
_cell_length_b                   5.5263
_cell_length_c                   13.3499
_cell_volume                     353.084
_citation_journal_id_ASTM        JCOMEL
_cod_data_source_file            Rao_JCOMEL_1999_73.cif
_cod_data_source_block           La0.9Mn1Na0.1O3
_cod_original_cell_volume        353.0836
_cod_original_formula_sum        'La0.9 Mn1 Na0.1 O3'
_cod_database_code               1521819
loop_
_symmetry_equiv_pos_as_xyz
x,y,z
-y,x-y,z
-x+y,-x,z
y,x,-z+1/2
-x,-x+y,-z+1/2
x-y,-y,-z+1/2
-x,-y,-z
y,-x+y,-z
x-y,x,-z
-y,-x,z-1/2
x,x-y,z-1/2
-x+y,y,z-1/2
x+2/3,y+1/3,z+1/3
-y+2/3,x-y+1/3,z+1/3
-x+y+2/3,-x+1/3,z+1/3
y+2/3,x+1/3,-z+5/6
-x+2/3,-x+y+1/3,-z+5/6
x-y+2/3,-y+1/3,-z+5/6
-x+2/3,-y+1/3,-z+1/3
y+2/3,-x+y+1/3,-z+1/3
x-y+2/3,x+1/3,-z+1/3
-y+2/3,-x+1/3,z-1/6
x+2/3,x-y+1/3,z-1/6
-x+y+2/3,y+1/3,z-1/6
x+1/3,y+2/3,z+2/3
-y+1/3,x-y+2/3,z+2/3
-x+y+1/3,-x+2/3,z+2/3
y+1/3,x+2/3,-z+7/6
-x+1/3,-x+y+2/3,-z+7/6
x-y+1/3,-y+2/3,-z+7/6
-x+1/3,-y+2/3,-z+2/3
y+1/3,-x+y+2/3,-z+2/3
x-y+1/3,x+2/3,-z+2/3
-y+1/3,-x+2/3,z+1/6
x+1/3,x-y+2/3,z+1/6
-x+y+1/3,y+2/3,z+1/6
loop_
_atom_site_label
_atom_site_type_symbol
_atom_site_fract_x
_atom_site_fract_y
_atom_site_fract_z
_atom_site_occupancy
_atom_site_U_iso_or_equiv
O1 O-2 0.4484 0 0.25 1 0.0
Mn1 Mn+3 0 0 0 0.8 0.0
Na1 Na+1 0 0 0.25 0.1 0.0
Mn2 Mn+4 0 0 0 0.2 0.0
La1 La+3 0 0 0.25 0.9 0.0
