#------------------------------------------------------------------------------
#$Date: 2016-02-13 21:28:24 +0200 (Sat, 13 Feb 2016) $
#$Revision: 176429 $
#$URL: svn://www.crystallography.net/cod/cif/1/52/15/1521533.cif $
#------------------------------------------------------------------------------
#
# This file is available in the Crystallography Open Database (COD),
# http://www.crystallography.net/
#
# All data on this site have been placed in the public domain by the
# contributors.
#
data_1521533
loop_
_publ_author_name
'Locherer, K.R.'
'Swainson, I.P.'
'Salje, E.K.H.'
_publ_section_title
;
 Transition to a new tetragonal phase of W O3 : crystal structure and
 distortion parameters
;
_journal_name_full               'Journal of Physics: Condensed Matter'
_journal_page_first              4143
_journal_page_last               4156
_journal_volume                  11
_journal_year                    1999
_chemical_formula_sum            'O3 W'
_chemical_name_systematic        'W O3'
_space_group_IT_number           129
_symmetry_space_group_name_Hall  '-P 4a 2a'
_symmetry_space_group_name_H-M   'P 4/n m m :2'
_cell_angle_alpha                90
_cell_angle_beta                 90
_cell_angle_gamma                90
_cell_formula_units_Z            2
_cell_length_a                   5.3031
_cell_length_b                   5.3031
_cell_length_c                   3.9348
_cell_volume                     110.658
_citation_journal_id_ASTM        JCOMEL
_cod_data_source_file            Locherer_JCOMEL_1999_94.cif
_cod_data_source_block           O3W1
_cod_original_cell_volume        110.6579
_cod_original_formula_sum        'O3 W1'
_cod_database_code               1521533
loop_
_symmetry_equiv_pos_as_xyz
x,y,z
-y+1/2,x,z
-x+1/2,-y+1/2,z
y,-x+1/2,z
x+1/2,-y,-z
y+1/2,x+1/2,-z
-x,y+1/2,-z
-y,-x,-z
-x,-y,-z
y-1/2,-x,-z
x-1/2,y-1/2,-z
-y,x-1/2,-z
-x-1/2,y,z
-y-1/2,-x-1/2,z
x,-y-1/2,z
y,x,z
loop_
_atom_site_label
_atom_site_type_symbol
_atom_site_fract_x
_atom_site_fract_y
_atom_site_fract_z
_atom_site_occupancy
_atom_site_U_iso_or_equiv
W1 W+6 0.25 0.25 -0.0664 1 0.0
O2 O-2 0 0 0 1 0.0
O1 O-2 0.25 0.25 0.494 1 0.0
