#------------------------------------------------------------------------------
#$Date: 2015-07-10 14:56:15 +0300 (Fri, 10 Jul 2015) $
#$Revision: 142212 $
#$URL: svn://www.crystallography.net/cod/cif/1/52/19/1521994.cif $
#------------------------------------------------------------------------------
#
# This file is available in the Crystallography Open Database (COD),
# http://www.crystallography.net/
#
# All data on this site have been placed in the public domain by the
# contributors.
#
data_1521994
loop_
_publ_author_name
'Subbarao, M.V.'
'Rajagopal, H.'
'Kulkarni, R.G.'
'Sequeira, A.'
_publ_section_title
;
 Structural studies of the superconducting La3.5-x-y Yy Ca2x Ba3.5-x Cu7
 Oz system
;
_journal_name_full               'Physica C (Amsterdam)'
_journal_page_first              181
_journal_page_last               188
_journal_volume                  319
_journal_year                    1999
_chemical_formula_sum            'Ba1.2 Ca0.6 Cu3 La0.9 O7.11 Y0.3'
_chemical_name_systematic        '(Ba1.2 La0.8) (La0.1 Y0.3 Ca0.6) Cu3 O7.11'
_space_group_IT_number           123
_symmetry_space_group_name_Hall  '-P 4 2'
_symmetry_space_group_name_H-M   'P 4/m m m'
_cell_angle_alpha                90
_cell_angle_beta                 90
_cell_angle_gamma                90
_cell_formula_units_Z            1
_cell_length_a                   3.883
_cell_length_b                   3.883
_cell_length_c                   11.677
_cell_volume                     176.062
_citation_journal_id_ASTM        PHYCE6
_cod_data_source_file            Subbarao_PHYCE6_1999_612.cif
_cod_data_source_block           Ba1.2Ca0.6Cu3La0.9O7.11Y0.3
_cod_original_cell_volume        176.0622
_cod_database_code               1521994
loop_
_symmetry_equiv_pos_as_xyz
x,y,z
-y,x,z
-x,-y,z
y,-x,z
x,-y,-z
y,x,-z
-x,y,-z
-y,-x,-z
-x,-y,-z
y,-x,-z
x,y,-z
-y,x,-z
-x,y,z
-y,-x,z
x,-y,z
y,x,z
loop_
_atom_site_label
_atom_site_type_symbol
_atom_site_fract_x
_atom_site_fract_y
_atom_site_fract_z
_atom_site_occupancy
_atom_site_U_iso_or_equiv
Ba1 Ba+2 0.5 0.5 0.1851 0.6 0.0
O3 O-2 0 0.5 0.3706 1 0.0
Y1 Y+3 0.5 0.5 0.5 0.3 0.0
La2 La+3 0.5 0.5 0.5 0.1 0.0
Cu1 Cu+2 0 0 0 1 0.0
O2 O-2 0 0 0.1577 0.99 0.0
Ca1 Ca+2 0.5 0.5 0.5 0.6 0.0
Cu2 Cu+2 0 0 0.3535 1 0.0
O1 O-2 0 0.5 0 0.565 0.0
La1 La+3 0.5 0.5 0.1851 0.4 0.0
