#------------------------------------------------------------------------------
#$Date: 2015-07-10 13:07:03 +0300 (Fri, 10 Jul 2015) $
#$Revision: 141705 $
#$URL: svn://www.crystallography.net/cod/cif/1/52/14/1521494.cif $
#------------------------------------------------------------------------------
#
# This file is available in the Crystallography Open Database (COD),
# http://www.crystallography.net/
#
# All data on this site have been placed in the public domain by the
# contributors.
#
data_1521494
loop_
_publ_author_name
'Lee, S.H.'
'Seff, K.'
'Kim, Y.'
_publ_section_title
;
 A cationic rubidium continuum in zeolite X
;
_journal_name_full               'J. Phys. Chem. B'
_journal_page_first              11162
_journal_page_last               11167
_journal_volume                  104
_journal_year                    2000
_chemical_formula_sum            'Al92 O384 Rb140 Si100'
_chemical_name_systematic        'Rb140 (Al92 Si100 O384)'
_space_group_IT_number           203
_symmetry_space_group_name_Hall  '-F 2uv 2vw 3'
_symmetry_space_group_name_H-M   'F d -3 :2'
_cell_angle_alpha                90
_cell_angle_beta                 90
_cell_angle_gamma                90
_cell_formula_units_Z            1
_cell_length_a                   25.2
_cell_length_b                   25.2
_cell_length_c                   25.2
_cell_volume                     16003.008
_citation_journal_id_ASTM        JPCBFK
_cod_data_source_file            Lee_JPCBFK_2000_1601.cif
_cod_data_source_block           Al92O384Rb140Si100
_cod_original_cell_volume        16003.01
_cod_database_code               1521494
loop_
_symmetry_equiv_pos_as_xyz
x,y,z
-x+1/4,-y+1/4,z
x,-y+1/4,-z+1/4
-x+1/4,y,-z+1/4
z,x,y
-z+1/4,-x+1/4,y
z,-x+1/4,-y+1/4
-z+1/4,x,-y+1/4
y,z,x
y,-z+1/4,-x+1/4
-y+1/4,z,-x+1/4
-y+1/4,-z+1/4,x
-x,-y,-z
x-1/4,y-1/4,-z
-x,y-1/4,z-1/4
x-1/4,-y,z-1/4
-z,-x,-y
z-1/4,x-1/4,-y
-z,x-1/4,y-1/4
z-1/4,-x,y-1/4
-y,-z,-x
-y,z-1/4,x-1/4
y-1/4,-z,x-1/4
y-1/4,z-1/4,-x
x,y+1/2,z+1/2
-x+1/4,-y+3/4,z+1/2
x,-y+3/4,-z+3/4
-x+1/4,y+1/2,-z+3/4
z,x+1/2,y+1/2
-z+1/4,-x+3/4,y+1/2
z,-x+3/4,-y+3/4
-z+1/4,x+1/2,-y+3/4
y,z+1/2,x+1/2
y,-z+3/4,-x+3/4
-y+1/4,z+1/2,-x+3/4
-y+1/4,-z+3/4,x+1/2
-x,-y+1/2,-z+1/2
x-1/4,y+1/4,-z+1/2
-x,y+1/4,z+1/4
x-1/4,-y+1/2,z+1/4
-z,-x+1/2,-y+1/2
z-1/4,x+1/4,-y+1/2
-z,x+1/4,y+1/4
z-1/4,-x+1/2,y+1/4
-y,-z+1/2,-x+1/2
-y,z+1/4,x+1/4
y-1/4,-z+1/2,x+1/4
y-1/4,z+1/4,-x+1/2
x+1/2,y,z+1/2
-x+3/4,-y+1/4,z+1/2
x+1/2,-y+1/4,-z+3/4
-x+3/4,y,-z+3/4
z+1/2,x,y+1/2
-z+3/4,-x+1/4,y+1/2
z+1/2,-x+1/4,-y+3/4
-z+3/4,x,-y+3/4
y+1/2,z,x+1/2
y+1/2,-z+1/4,-x+3/4
-y+3/4,z,-x+3/4
-y+3/4,-z+1/4,x+1/2
-x+1/2,-y,-z+1/2
x+1/4,y-1/4,-z+1/2
-x+1/2,y-1/4,z+1/4
x+1/4,-y,z+1/4
-z+1/2,-x,-y+1/2
z+1/4,x-1/4,-y+1/2
-z+1/2,x-1/4,y+1/4
z+1/4,-x,y+1/4
-y+1/2,-z,-x+1/2
-y+1/2,z-1/4,x+1/4
y+1/4,-z,x+1/4
y+1/4,z-1/4,-x+1/2
x+1/2,y+1/2,z
-x+3/4,-y+3/4,z
x+1/2,-y+3/4,-z+1/4
-x+3/4,y+1/2,-z+1/4
z+1/2,x+1/2,y
-z+3/4,-x+3/4,y
z+1/2,-x+3/4,-y+1/4
-z+3/4,x+1/2,-y+1/4
y+1/2,z+1/2,x
y+1/2,-z+3/4,-x+1/4
-y+3/4,z+1/2,-x+1/4
-y+3/4,-z+3/4,x
-x+1/2,-y+1/2,-z
x+1/4,y+1/4,-z
-x+1/2,y+1/4,z-1/4
x+1/4,-y+1/2,z-1/4
-z+1/2,-x+1/2,-y
z+1/4,x+1/4,-y
-z+1/2,x+1/4,y-1/4
z+1/4,-x+1/2,y-1/4
-y+1/2,-z+1/2,-x
-y+1/2,z+1/4,x-1/4
y+1/4,-z+1/2,x-1/4
y+1/4,z+1/4,-x
loop_
_atom_site_label
_atom_site_type_symbol
_atom_site_fract_x
_atom_site_fract_y
_atom_site_fract_z
_atom_site_occupancy
_atom_site_U_iso_or_equiv
O1 O-2 0.8883 0.0007 0.1106 1 0.0
Rb5 Rb 0.4158 0.125 0.125 0.5 0.0
Rb1 Rb+1 0 0 0 0.75 0.0
Si1 Si+4 -0.0564 0.1266 0.0356 1 0.0
Rb3 Rb 0.1705 0.1705 0.1705 0.25 0.0
Rb2 Rb 0.0758 0.0758 0.0758 0.25 0.0
O4 O-2 -0.0716 0.068 0.1795 1 0.0
Rb6 Rb 0.4295 0.0594 0.0581 0.5 0.0
O2 O-2 -0.0051 -0.0041 0.1385 1 0.0
O3 O-2 -0.0363 0.0779 0.0765 1 0.0
Rb7 Rb 0.375 0.375 0.375 1 0.0
Rb4 Rb 0.2546 0.2546 0.2546 1 0.0
Al1 Al+3 -0.0561 0.0355 0.1263 0.9583 0.0
Si2 Si+4 -0.0561 0.0355 0.1263 0.0417 0.0
