#------------------------------------------------------------------------------
#$Date: 2016-02-13 21:28:24 +0200 (Sat, 13 Feb 2016) $
#$Revision: 176429 $
#$URL: svn://www.crystallography.net/cod/cif/1/52/12/1521246.cif $
#------------------------------------------------------------------------------
#
# This file is available in the Crystallography Open Database (COD),
# http://www.crystallography.net/
#
# All data on this site have been placed in the public domain by the
# contributors.
#
data_1521246
loop_
_publ_author_name
'Istomin, S.Ya.'
'Svensson, G.'
'Hannerz, H.'
'Koehler, J.'
_publ_section_title
;
 An X-ray powder and electron diffraction study of reduced tantalates with
 the perovskite structure, Na1-x Srx Ta O3, 0<x<4
;
_journal_name_full               'Journal of Solid State Chemistry'
_journal_page_first              427
_journal_page_last               434
_journal_volume                  154
_journal_year                    2000
_chemical_formula_sum            'Na0.6 O3 Sr0.4 Ta'
_chemical_name_systematic        '(Na0.6 Sr0.4) (Ta O3)'
_space_group_IT_number           221
_symmetry_space_group_name_Hall  '-P 4 2 3'
_symmetry_space_group_name_H-M   'P m -3 m'
_cell_angle_alpha                90
_cell_angle_beta                 90
_cell_angle_gamma                90
_cell_formula_units_Z            1
_cell_length_a                   3.96291
_cell_length_b                   3.96291
_cell_length_c                   3.96291
_cell_volume                     62.236
_citation_journal_id_ASTM        JSSCBI
_cod_data_source_file            Istomin_JSSCBI_2000_1999.cif
_cod_data_source_block           Na0.6O3Sr0.4Ta1
_cod_original_cell_volume        62.23613
_cod_original_formula_sum        'Na0.6 O3 Sr0.4 Ta1'
_cod_database_code               1521246
loop_
_symmetry_equiv_pos_as_xyz
x,y,z
-y,x,z
-x,-y,z
y,-x,z
x,-y,-z
y,x,-z
-x,y,-z
-y,-x,-z
z,x,y
-x,z,y
-z,-x,y
x,-z,y
z,-x,-y
x,z,-y
-z,x,-y
-x,-z,-y
y,z,x
y,-z,-x
z,y,-x
-y,z,-x
-z,-y,-x
-y,-z,x
z,-y,x
-z,y,x
-x,-y,-z
y,-x,-z
x,y,-z
-y,x,-z
-x,y,z
-y,-x,z
x,-y,z
y,x,z
-z,-x,-y
x,-z,-y
z,x,-y
-x,z,-y
-z,x,y
-x,-z,y
z,-x,y
x,z,y
-y,-z,-x
-y,z,x
-z,-y,x
y,-z,x
z,y,x
y,z,-x
-z,y,-x
z,-y,-x
loop_
_atom_site_label
_atom_site_type_symbol
_atom_site_fract_x
_atom_site_fract_y
_atom_site_fract_z
_atom_site_occupancy
_atom_site_U_iso_or_equiv
O1 O-2 0.5 0.5 0 1 0.0
Sr1 Sr+2 0 0 0 0.4 0.0
Na1 Na+1 0 0 0 0.6 0.0
Ta1 Ta+4 0.5 0.5 0.5 1 0.0
