#------------------------------------------------------------------------------
#$Date: 2016-02-13 21:28:24 +0200 (Sat, 13 Feb 2016) $
#$Revision: 176429 $
#$URL: svn://www.crystallography.net/cod/cif/1/52/15/1521536.cif $
#------------------------------------------------------------------------------
#
# This file is available in the Crystallography Open Database (COD),
# http://www.crystallography.net/
#
# All data on this site have been placed in the public domain by the
# contributors.
#
data_1521536
loop_
_publ_author_name
'Lucas, F.'
'Jaulmes, S.'
'Quarton, M.'
'le Mercier, T.'
'Fouassier, C.'
'Guillen, F.'
_publ_section_title
;
 Crystal structure of Sr Al2 B2 O7 and Eu(2+) luminescence
;
_journal_name_full               'Journal of Solid State Chemistry'
_journal_page_first              404
_journal_page_last               409
_journal_volume                  150
_journal_year                    2000
_chemical_formula_sum            'Al2 B2 O7 Sr'
_chemical_name_systematic        'Sr Al2 (B2 O7)'
_space_group_IT_number           167
_symmetry_space_group_name_Hall  '-R 3 2"c'
_symmetry_space_group_name_H-M   'R -3 c :H'
_cell_angle_alpha                90
_cell_angle_beta                 90
_cell_angle_gamma                120
_cell_formula_units_Z            6
_cell_length_a                   4.893
_cell_length_b                   4.893
_cell_length_c                   47.78
_cell_volume                     990.666
_citation_journal_id_ASTM        JSSCBI
_cod_data_source_file            Lucas_JSSCBI_2000_1823.cif
_cod_data_source_block           Al2B2O7Sr1
_cod_original_cell_volume        990.6659
_cod_original_formula_sum        'Al2 B2 O7 Sr1'
_cod_database_code               1521536
loop_
_symmetry_equiv_pos_as_xyz
x,y,z
-y,x-y,z
-x+y,-x,z
y,x,-z+1/2
-x,-x+y,-z+1/2
x-y,-y,-z+1/2
-x,-y,-z
y,-x+y,-z
x-y,x,-z
-y,-x,z-1/2
x,x-y,z-1/2
-x+y,y,z-1/2
x+2/3,y+1/3,z+1/3
-y+2/3,x-y+1/3,z+1/3
-x+y+2/3,-x+1/3,z+1/3
y+2/3,x+1/3,-z+5/6
-x+2/3,-x+y+1/3,-z+5/6
x-y+2/3,-y+1/3,-z+5/6
-x+2/3,-y+1/3,-z+1/3
y+2/3,-x+y+1/3,-z+1/3
x-y+2/3,x+1/3,-z+1/3
-y+2/3,-x+1/3,z-1/6
x+2/3,x-y+1/3,z-1/6
-x+y+2/3,y+1/3,z-1/6
x+1/3,y+2/3,z+2/3
-y+1/3,x-y+2/3,z+2/3
-x+y+1/3,-x+2/3,z+2/3
y+1/3,x+2/3,-z+7/6
-x+1/3,-x+y+2/3,-z+7/6
x-y+1/3,-y+2/3,-z+7/6
-x+1/3,-y+2/3,-z+2/3
y+1/3,-x+y+2/3,-z+2/3
x-y+1/3,x+2/3,-z+2/3
-y+1/3,-x+2/3,z+1/6
x+1/3,x-y+2/3,z+1/6
-x+y+1/3,y+2/3,z+1/6
loop_
_atom_site_label
_atom_site_type_symbol
_atom_site_fract_x
_atom_site_fract_y
_atom_site_fract_z
_atom_site_occupancy
_atom_site_U_iso_or_equiv
Sr1 Sr+2 0 0 0 1 0.0
O2 O-2 0 0 0.25 1 0.0
B1 B+3 0 0 0.1326 1 0.0
O1 O-2 0.395 0.9719 0.03286 1 0.0
Al1 Al+3 0 0 0.21514 1 0.0
