#------------------------------------------------------------------------------
#$Date: 2016-02-13 21:28:24 +0200 (Sat, 13 Feb 2016) $
#$Revision: 176429 $
#$URL: svn://www.crystallography.net/cod/cif/1/52/20/1522090.cif $
#------------------------------------------------------------------------------
#
# This file is available in the Crystallography Open Database (COD),
# http://www.crystallography.net/
#
# All data on this site have been placed in the public domain by the
# contributors.
#
data_1522090
loop_
_publ_author_name
'Varatharajan, R.'
'Santhanaraghavan, P.'
'Jayavel, R.'
'Bocelli, G.'
'Right, L.'
'Ramasamy, P.'
_publ_section_title
;
 Ba Sr Ti Ce O3 : growth and crystal structure
;
_journal_name_full               'Crystal Engineering'
_journal_page_first              195
_journal_page_last               2000
_journal_volume                  3
_journal_year                    2000
_chemical_formula_sum            'Ba0.592 O3 Sr0.408 Ti'
_chemical_name_systematic        '(Ba0.592 Sr0.408) Ti O3'
_space_group_IT_number           221
_symmetry_space_group_name_Hall  '-P 4 2 3'
_symmetry_space_group_name_H-M   'P m -3 m'
_cell_angle_alpha                90
_cell_angle_beta                 90
_cell_angle_gamma                90
_cell_formula_units_Z            1
_cell_length_a                   3.985
_cell_length_b                   3.985
_cell_length_c                   3.985
_cell_volume                     63.283
_citation_journal_id_ASTM        CRYEF8
_cod_data_source_file            Varatharajan_CRYEF8_2000_1069.cif
_cod_data_source_block           Ba0.592O3Sr0.408Ti1
_cod_original_cell_volume        63.28269
_cod_original_formula_sum        'Ba0.592 O3 Sr0.408 Ti1'
_cod_database_code               1522090
loop_
_symmetry_equiv_pos_as_xyz
x,y,z
-y,x,z
-x,-y,z
y,-x,z
x,-y,-z
y,x,-z
-x,y,-z
-y,-x,-z
z,x,y
-x,z,y
-z,-x,y
x,-z,y
z,-x,-y
x,z,-y
-z,x,-y
-x,-z,-y
y,z,x
y,-z,-x
z,y,-x
-y,z,-x
-z,-y,-x
-y,-z,x
z,-y,x
-z,y,x
-x,-y,-z
y,-x,-z
x,y,-z
-y,x,-z
-x,y,z
-y,-x,z
x,-y,z
y,x,z
-z,-x,-y
x,-z,-y
z,x,-y
-x,z,-y
-z,x,y
-x,-z,y
z,-x,y
x,z,y
-y,-z,-x
-y,z,x
-z,-y,x
y,-z,x
z,y,x
y,z,-x
-z,y,-x
z,-y,-x
loop_
_atom_site_label
_atom_site_type_symbol
_atom_site_fract_x
_atom_site_fract_y
_atom_site_fract_z
_atom_site_occupancy
_atom_site_U_iso_or_equiv
Ti1 Ti+4 0.5 0.5 0.5 1 0.0
O1 O-2 0 0.5 0.5 1 0.0
Ba1 Ba+2 0 0 0 0.592 0.0
Sr1 Sr+2 0 0 0 0.408 0.0
