#------------------------------------------------------------------------------
#$Date: 2015-07-10 15:26:54 +0300 (Fri, 10 Jul 2015) $
#$Revision: 142349 $
#$URL: svn://www.crystallography.net/cod/cif/1/52/21/1522129.cif $
#------------------------------------------------------------------------------
#
# This file is available in the Crystallography Open Database (COD),
# http://www.crystallography.net/
#
# All data on this site have been placed in the public domain by the
# contributors.
#
data_1522129
loop_
_publ_author_name
'Wada, S.'
'Suzuki, T.'
'Yano, M.'
'Noma, T.'
_publ_section_title
;
 Crystal structure of barium titanate fine particles including Mg and
 analysis of their lattice vibrations
;
_journal_name_full               'Journal of Materials Science'
_journal_page_first              3889
_journal_page_last               3902
_journal_volume                  35
_journal_year                    2000
_chemical_formula_sum            'Ba0.93 Mg0.21 O2.97 Ti0.79'
_chemical_name_systematic        'Ba0.93 (Ti0.79 Mg0.21) O2.97'
_space_group_IT_number           221
_symmetry_space_group_name_Hall  '-P 4 2 3'
_symmetry_space_group_name_H-M   'P m -3 m'
_cell_angle_alpha                90
_cell_angle_beta                 90
_cell_angle_gamma                90
_cell_formula_units_Z            1
_cell_length_a                   4.0074
_cell_length_b                   4.0074
_cell_length_c                   4.0074
_cell_volume                     64.356
_citation_journal_id_ASTM        JMTSAS
_cod_data_source_file            Wada_JMTSAS_2000_1593.cif
_cod_data_source_block           Ba0.93Mg0.21O2.97Ti0.79
_cod_original_cell_volume        64.35586
_cod_database_code               1522129
loop_
_symmetry_equiv_pos_as_xyz
x,y,z
-y,x,z
-x,-y,z
y,-x,z
x,-y,-z
y,x,-z
-x,y,-z
-y,-x,-z
z,x,y
-x,z,y
-z,-x,y
x,-z,y
z,-x,-y
x,z,-y
-z,x,-y
-x,-z,-y
y,z,x
y,-z,-x
z,y,-x
-y,z,-x
-z,-y,-x
-y,-z,x
z,-y,x
-z,y,x
-x,-y,-z
y,-x,-z
x,y,-z
-y,x,-z
-x,y,z
-y,-x,z
x,-y,z
y,x,z
-z,-x,-y
x,-z,-y
z,x,-y
-x,z,-y
-z,x,y
-x,-z,y
z,-x,y
x,z,y
-y,-z,-x
-y,z,x
-z,-y,x
y,-z,x
z,y,x
y,z,-x
-z,y,-x
z,-y,-x
loop_
_atom_site_label
_atom_site_type_symbol
_atom_site_fract_x
_atom_site_fract_y
_atom_site_fract_z
_atom_site_occupancy
_atom_site_U_iso_or_equiv
Ba1 Ba+2 0 0 0 0.93 0.0
Ti1 Ti+4 0.5 0.5 0.5 0.79 0.0
Mg1 Mg+2 0.5 0.5 0.5 0.21 0.0
O1 O-2 0.5 0.5 0 0.99 0.0
