#------------------------------------------------------------------------------
#$Date: 2015-07-10 15:20:13 +0300 (Fri, 10 Jul 2015) $
#$Revision: 142307 $
#$URL: svn://www.crystallography.net/cod/cif/1/52/20/1522088.cif $
#------------------------------------------------------------------------------
#
# This file is available in the Crystallography Open Database (COD),
# http://www.crystallography.net/
#
# All data on this site have been placed in the public domain by the
# contributors.
#
data_1522088
loop_
_publ_author_name
'Varatharajan, R.'
'Santhanaraghavan, P.'
'Right, L.'
'Bocelli, G.'
'Jayavel, R.'
'Ramasamy, P.'
_publ_section_title
;
 Ba Sr Ti Ce O3 : growth and crystal structure
;
_journal_name_full               'Crystal Engineering'
_journal_page_first              195
_journal_page_last               2000
_journal_volume                  3
_journal_year                    2000
_chemical_formula_sum            'Ba0.829 Ce0.11 O3 Sr0.171 Ti0.89'
_chemical_name_systematic        '(Ba0.829 Sr0.171) (Ti0.89 Ce0.11) O3'
_space_group_IT_number           221
_symmetry_space_group_name_Hall  '-P 4 2 3'
_symmetry_space_group_name_H-M   'P m -3 m'
_cell_angle_alpha                90
_cell_angle_beta                 90
_cell_angle_gamma                90
_cell_formula_units_Z            1
_cell_length_a                   3.976
_cell_length_b                   3.976
_cell_length_c                   3.976
_cell_volume                     62.855
_citation_journal_id_ASTM        CRYEF8
_cod_data_source_file            Varatharajan_CRYEF8_2000_1068.cif
_cod_data_source_block           Ba0.829Ce0.11O3Sr0.171Ti0.89
_cod_original_cell_volume        62.8549
_cod_database_code               1522088
loop_
_symmetry_equiv_pos_as_xyz
x,y,z
-y,x,z
-x,-y,z
y,-x,z
x,-y,-z
y,x,-z
-x,y,-z
-y,-x,-z
z,x,y
-x,z,y
-z,-x,y
x,-z,y
z,-x,-y
x,z,-y
-z,x,-y
-x,-z,-y
y,z,x
y,-z,-x
z,y,-x
-y,z,-x
-z,-y,-x
-y,-z,x
z,-y,x
-z,y,x
-x,-y,-z
y,-x,-z
x,y,-z
-y,x,-z
-x,y,z
-y,-x,z
x,-y,z
y,x,z
-z,-x,-y
x,-z,-y
z,x,-y
-x,z,-y
-z,x,y
-x,-z,y
z,-x,y
x,z,y
-y,-z,-x
-y,z,x
-z,-y,x
y,-z,x
z,y,x
y,z,-x
-z,y,-x
z,-y,-x
loop_
_atom_site_label
_atom_site_type_symbol
_atom_site_fract_x
_atom_site_fract_y
_atom_site_fract_z
_atom_site_occupancy
_atom_site_U_iso_or_equiv
O1 O-2 0 0.5 0.5 1 0.0
Ba1 Ba+2 0 0 0 0.829 0.0
Ti1 Ti+4 0.5 0.5 0.5 0.89 0.0
Ce1 Ce+4 0.5 0.5 0.5 0.11 0.0
Sr1 Sr+2 0 0 0 0.171 0.0
