#------------------------------------------------------------------------------
#$Date: 2015-07-10 15:19:01 +0300 (Fri, 10 Jul 2015) $
#$Revision: 142299 $
#$URL: svn://www.crystallography.net/cod/cif/1/52/20/1522080.cif $
#------------------------------------------------------------------------------
#
# This file is available in the Crystallography Open Database (COD),
# http://www.crystallography.net/
#
# All data on this site have been placed in the public domain by the
# contributors.
#
data_1522080
loop_
_publ_author_name
'Valldor, M.'
'Boullay, P.'
'Axnas, J.'
'Bryntse, I.'
_publ_section_title
;
 X-ray diffraction studies of 2212-type superconductors in the Tl - Hg -
 Ba - Sr - Ca - Cu - O system
;
_journal_name_full               'Journal of Solid State Chemistry'
_journal_page_first              106
_journal_page_last               117
_journal_volume                  153
_journal_year                    2000
_chemical_formula_sum            'Ba1.62 Ca0.53 Cu2 Hg0.7 O7.44 Sr0.85 Tl1.3'
_chemical_name_systematic        'Tl1.3 Hg0.7 Ba1.62 Sr0.85 Ca0.53 Cu2 O7.44'
_space_group_IT_number           139
_symmetry_space_group_name_Hall  '-I 4 2'
_symmetry_space_group_name_H-M   'I 4/m m m'
_cell_angle_alpha                90
_cell_angle_beta                 90
_cell_angle_gamma                90
_cell_formula_units_Z            2
_cell_length_a                   3.85299
_cell_length_b                   3.85299
_cell_length_c                   29.48779
_cell_volume                     437.762
_citation_journal_id_ASTM        JSSCBI
_cod_data_source_file            Valldor_JSSCBI_2000_1941.cif
_cod_data_source_block           Ba1.62Ca0.53Cu2Hg0.7O7.44Sr0.85Tl1.3
_cod_original_cell_volume        437.7619
_cod_database_code               1522080
loop_
_symmetry_equiv_pos_as_xyz
x,y,z
-y,x,z
-x,-y,z
y,-x,z
x,-y,-z
y,x,-z
-x,y,-z
-y,-x,-z
-x,-y,-z
y,-x,-z
x,y,-z
-y,x,-z
-x,y,z
-y,-x,z
x,-y,z
y,x,z
x+1/2,y+1/2,z+1/2
-y+1/2,x+1/2,z+1/2
-x+1/2,-y+1/2,z+1/2
y+1/2,-x+1/2,z+1/2
x+1/2,-y+1/2,-z+1/2
y+1/2,x+1/2,-z+1/2
-x+1/2,y+1/2,-z+1/2
-y+1/2,-x+1/2,-z+1/2
-x+1/2,-y+1/2,-z+1/2
y+1/2,-x+1/2,-z+1/2
x+1/2,y+1/2,-z+1/2
-y+1/2,x+1/2,-z+1/2
-x+1/2,y+1/2,z+1/2
-y+1/2,-x+1/2,z+1/2
x+1/2,-y+1/2,z+1/2
y+1/2,x+1/2,z+1/2
loop_
_atom_site_label
_atom_site_type_symbol
_atom_site_fract_x
_atom_site_fract_y
_atom_site_fract_z
_atom_site_occupancy
_atom_site_U_iso_or_equiv
Ba1 Ba+2 0 0 0.12245 0.81 0.0
Tl1 Tl+3 0.5 0.5 0.21303 0.65 0.0
O3 O-2 0 0 0.224 0.72 0.0
O1 O-2 0 0.5 0.0538 1 0.0
Sr1 Sr+2 0 0 0 0.47 0.0
O2 O-2 0.5 0.5 0.1395 1 0.0
Ca1 Ca+2 0 0 0 0.53 0.0
Cu2 Cu+1 0.5 0.5 0.0572 1 0.0
Hg1 Hg+2 0.5 0.5 0.21303 0.35 0.0
Sr2 Sr+2 0 0 0.12245 0.19 0.0
