#------------------------------------------------------------------------------
#$Date: 2016-02-13 21:28:24 +0200 (Sat, 13 Feb 2016) $
#$Revision: 176429 $
#$URL: svn://www.crystallography.net/cod/cif/1/52/22/1522299.cif $
#------------------------------------------------------------------------------
#
# This file is available in the Crystallography Open Database (COD),
# http://www.crystallography.net/
#
# All data on this site have been placed in the public domain by the
# contributors.
#
data_1522299
loop_
_publ_author_name
'Yoshii, K.'
_publ_section_title
;
 Magnetic transition in the perovskite Ba2 Co Nb O6
;
_journal_name_full               'Journal of Solid State Chemistry'
_journal_page_first              294
_journal_page_last               297
_journal_volume                  151
_journal_year                    2000
_chemical_formula_sum            'Ba Co0.5 Nb0.5 O3'
_chemical_name_systematic        'Ba (Co0.5 Nb0.5) O3'
_space_group_IT_number           221
_symmetry_space_group_name_Hall  '-P 4 2 3'
_symmetry_space_group_name_H-M   'P m -3 m'
_cell_angle_alpha                90
_cell_angle_beta                 90
_cell_angle_gamma                90
_cell_formula_units_Z            1
_cell_length_a                   4.0789
_cell_length_b                   4.0789
_cell_length_c                   4.0789
_cell_volume                     67.862
_citation_journal_id_ASTM        JSSCBI
_cod_data_source_file            Yoshii_JSSCBI_2000_1868.cif
_cod_data_source_block           Ba1Co0.5Nb0.5O3
_cod_original_cell_volume        67.86239
_cod_original_formula_sum        'Ba1 Co0.5 Nb0.5 O3'
_cod_database_code               1522299
loop_
_symmetry_equiv_pos_as_xyz
x,y,z
-y,x,z
-x,-y,z
y,-x,z
x,-y,-z
y,x,-z
-x,y,-z
-y,-x,-z
z,x,y
-x,z,y
-z,-x,y
x,-z,y
z,-x,-y
x,z,-y
-z,x,-y
-x,-z,-y
y,z,x
y,-z,-x
z,y,-x
-y,z,-x
-z,-y,-x
-y,-z,x
z,-y,x
-z,y,x
-x,-y,-z
y,-x,-z
x,y,-z
-y,x,-z
-x,y,z
-y,-x,z
x,-y,z
y,x,z
-z,-x,-y
x,-z,-y
z,x,-y
-x,z,-y
-z,x,y
-x,-z,y
z,-x,y
x,z,y
-y,-z,-x
-y,z,x
-z,-y,x
y,-z,x
z,y,x
y,z,-x
-z,y,-x
z,-y,-x
loop_
_atom_site_label
_atom_site_type_symbol
_atom_site_fract_x
_atom_site_fract_y
_atom_site_fract_z
_atom_site_occupancy
_atom_site_U_iso_or_equiv
Nb1 Nb+5 0.5 0.5 0.5 0.5 0.0
Co1 Co+3 0.5 0.5 0.5 0.5 0.0
O1 O-2 0 0.5 0.5 1 0.0
Ba1 Ba+2 0 0 0 1 0.0
