#------------------------------------------------------------------------------
#$Date: 2016-02-13 21:28:24 +0200 (Sat, 13 Feb 2016) $
#$Revision: 176429 $
#$URL: svn://www.crystallography.net/cod/cif/1/52/20/1522084.cif $
#------------------------------------------------------------------------------
#
# This file is available in the Crystallography Open Database (COD),
# http://www.crystallography.net/
#
# All data on this site have been placed in the public domain by the
# contributors.
#
data_1522084
loop_
_publ_author_name
'Valldor, M.'
'Boullay, P.'
'Axnas, J.'
'Bryntse, I.'
_publ_section_title
;
 X-ray diffraction studies of 2212-type superconductors in the Tl - Hg -
 Ba - Sr - Ca - Cu - O system
;
_journal_name_full               'Journal of Solid State Chemistry'
_journal_page_first              106
_journal_page_last               117
_journal_volume                  153
_journal_year                    2000
_chemical_formula_sum            'Ba2 Ca Cu2 Hg0.7 O7.8 Tl1.3'
_chemical_name_systematic        'Tl1.3 Hg0.7 Ba2 Ca Cu2 O7.8'
_space_group_IT_number           139
_symmetry_space_group_name_Hall  '-I 4 2'
_symmetry_space_group_name_H-M   'I 4/m m m'
_cell_angle_alpha                90
_cell_angle_beta                 90
_cell_angle_gamma                90
_cell_formula_units_Z            2
_cell_length_a                   3.84781
_cell_length_b                   3.84781
_cell_length_c                   29.51044
_cell_volume                     436.921
_citation_journal_id_ASTM        JSSCBI
_cod_data_source_file            Valldor_JSSCBI_2000_1943.cif
_cod_data_source_block           Ba2Ca1Cu2Hg0.7O7.8Tl1.3
_cod_original_formula_sum        'Ba2 Ca1 Cu2 Hg0.7 O7.8 Tl1.3'
_cod_database_code               1522084
loop_
_symmetry_equiv_pos_as_xyz
x,y,z
-y,x,z
-x,-y,z
y,-x,z
x,-y,-z
y,x,-z
-x,y,-z
-y,-x,-z
-x,-y,-z
y,-x,-z
x,y,-z
-y,x,-z
-x,y,z
-y,-x,z
x,-y,z
y,x,z
x+1/2,y+1/2,z+1/2
-y+1/2,x+1/2,z+1/2
-x+1/2,-y+1/2,z+1/2
y+1/2,-x+1/2,z+1/2
x+1/2,-y+1/2,-z+1/2
y+1/2,x+1/2,-z+1/2
-x+1/2,y+1/2,-z+1/2
-y+1/2,-x+1/2,-z+1/2
-x+1/2,-y+1/2,-z+1/2
y+1/2,-x+1/2,-z+1/2
x+1/2,y+1/2,-z+1/2
-y+1/2,x+1/2,-z+1/2
-x+1/2,y+1/2,z+1/2
-y+1/2,-x+1/2,z+1/2
x+1/2,-y+1/2,z+1/2
y+1/2,x+1/2,z+1/2
loop_
_atom_site_label
_atom_site_type_symbol
_atom_site_fract_x
_atom_site_fract_y
_atom_site_fract_z
_atom_site_occupancy
_atom_site_U_iso_or_equiv
Ca1 Ca+2 0 0 0 1 0.0
O2 O-2 0.5 0.5 0.1441 1 0.0
O1 O-2 0 0.5 0.0525 1 0.0
Ba1 Ba+2 0 0 0.12183 1 0.0
Tl1 Tl+3 0.5 0.5 0.2126 0.65 0.0
Cu2 Cu+2 0.5 0.5 0.0545 1 0.0
O3 O-2 0.148 0 0.2223 0.225 0.0
Hg1 Hg+2 0.5 0.5 0.2126 0.35 0.0
