#------------------------------------------------------------------------------
#$Date: 2015-07-10 15:44:34 +0300 (Fri, 10 Jul 2015) $
#$Revision: 142459 $
#$URL: svn://www.crystallography.net/cod/cif/1/52/22/1522238.cif $
#------------------------------------------------------------------------------
#
# This file is available in the Crystallography Open Database (COD),
# http://www.crystallography.net/
#
# All data on this site have been placed in the public domain by the
# contributors.
#
data_1522238
loop_
_publ_author_name
'Wu, X.S.'
'Gao, J.'
_publ_section_title
;
 Superconductivity and structural changes in Y0.8 Ca0.2 Ba2-x Ndx Cu3 Oy
 cuprates with x < 0.50
;
_journal_name_full               'Physica C (Amsterdam)'
_journal_page_first              79
_journal_page_last               86
_journal_volume                  313
_journal_year                    1999
_chemical_formula_sum            'Ba1.75 Ca0.2 Cu3 Nd0.25 O7 Y0.8'
_chemical_name_systematic
'(Y0.8 Ca0.14 Nd0.06) (Ba1.75 Nd0.19 Ca0.06) Cu3 O7'
_space_group_IT_number           47
_symmetry_space_group_name_Hall  '-P 2 2'
_symmetry_space_group_name_H-M   'P m m m'
_cell_angle_alpha                90
_cell_angle_beta                 90
_cell_angle_gamma                90
_cell_formula_units_Z            1
_cell_length_a                   3.8803
_cell_length_b                   3.826
_cell_length_c                   11.6611
_cell_volume                     173.121
_citation_journal_id_ASTM        PHYCE6
_cod_data_source_file            Wu_PHYCE6_1999_604.cif
_cod_data_source_block           Ba1.75Ca0.2Cu3Nd0.25O7Y0.8
_cod_database_code               1522238
loop_
_symmetry_equiv_pos_as_xyz
x,y,z
-x,-y,z
x,-y,-z
-x,y,-z
-x,-y,-z
x,y,-z
-x,y,z
x,-y,z
loop_
_atom_site_label
_atom_site_type_symbol
_atom_site_fract_x
_atom_site_fract_y
_atom_site_fract_z
_atom_site_occupancy
_atom_site_U_iso_or_equiv
Ba1 Ba+2 0.5 0.5 0.1861 0.875 0.0
Ca1 Ca+2 0.5 0.5 0.5 0.14 0.0
Cu2 Cu+2 0 0 0.3566 1 0.0
Nd1 Nd+3 0.5 0.5 0.5 0.06 0.0
O5 O-2 0 0.5 0.3819 1 0.0
Nd2 Nd+3 0.5 0.5 0.1861 0.095 0.0
O4 O-2 0.5 0 0.3782 1 0.0
O3 O-2 0 0 0.1691 1 0.0
Cu1 Cu+2 0 0 0 1 0.0
Ca2 Ca+2 0.5 0.5 0.1861 0.03 0.0
Y1 Y+3 0.5 0.5 0.5 0.8 0.0
O1 O-2 0.5 0 0 0.5 0.0
O2 O-2 0 0.5 0 0.5 0.0
