#------------------------------------------------------------------------------
#$Date: 2016-02-13 21:28:24 +0200 (Sat, 13 Feb 2016) $
#$Revision: 176429 $
#$URL: svn://www.crystallography.net/cod/cif/1/52/22/1522293.cif $
#------------------------------------------------------------------------------
#
# This file is available in the Crystallography Open Database (COD),
# http://www.crystallography.net/
#
# All data on this site have been placed in the public domain by the
# contributors.
#
data_1522293
loop_
_publ_author_name
'Yoshii, K.'
_publ_section_title
;
 Structural and magnetic properties of the perovskites Srn+1 (Co0.5
 Nb0.5)n O3n+1 (n=infty, 2 and 1)
;
_journal_name_full               'Journal of Alloys Compd.'
_journal_page_first              119
_journal_page_last               123
_journal_volume                  307
_journal_year                    2000
_chemical_formula_sum            'Co0.5 Nb0.5 O3 Sr'
_chemical_name_systematic        'Sr ((Co0.5 Nb0.5) O3)'
_space_group_IT_number           221
_symmetry_space_group_name_Hall  '-P 4 2 3'
_symmetry_space_group_name_H-M   'P m -3 m'
_cell_angle_alpha                90
_cell_angle_beta                 90
_cell_angle_gamma                90
_cell_formula_units_Z            1
_cell_length_a                   3.944
_cell_length_b                   3.944
_cell_length_c                   3.944
_cell_volume                     61.349
_citation_journal_id_ASTM        JALCEU
_cod_data_source_file            Yoshii_JALCEU_2000_1377.cif
_cod_data_source_block           Co0.5Nb0.5O3Sr1
_cod_original_cell_volume        61.34946
_cod_original_formula_sum        'Co0.5 Nb0.5 O3 Sr1'
_cod_database_code               1522293
loop_
_symmetry_equiv_pos_as_xyz
x,y,z
-y,x,z
-x,-y,z
y,-x,z
x,-y,-z
y,x,-z
-x,y,-z
-y,-x,-z
z,x,y
-x,z,y
-z,-x,y
x,-z,y
z,-x,-y
x,z,-y
-z,x,-y
-x,-z,-y
y,z,x
y,-z,-x
z,y,-x
-y,z,-x
-z,-y,-x
-y,-z,x
z,-y,x
-z,y,x
-x,-y,-z
y,-x,-z
x,y,-z
-y,x,-z
-x,y,z
-y,-x,z
x,-y,z
y,x,z
-z,-x,-y
x,-z,-y
z,x,-y
-x,z,-y
-z,x,y
-x,-z,y
z,-x,y
x,z,y
-y,-z,-x
-y,z,x
-z,-y,x
y,-z,x
z,y,x
y,z,-x
-z,y,-x
z,-y,-x
loop_
_atom_site_label
_atom_site_type_symbol
_atom_site_fract_x
_atom_site_fract_y
_atom_site_fract_z
_atom_site_occupancy
_atom_site_U_iso_or_equiv
Nb1 Nb+5 0.5 0.5 0.5 0.5 0.0
Sr1 Sr+2 0 0 0 1 0.0
Co1 Co+3 0.5 0.5 0.5 0.5 0.0
O1 O-2 0 0.5 0.5 1 0.0
