#------------------------------------------------------------------------------
#$Date: 2016-02-13 21:28:24 +0200 (Sat, 13 Feb 2016) $
#$Revision: 176429 $
#$URL: svn://www.crystallography.net/cod/cif/1/52/58/1525856.cif $
#------------------------------------------------------------------------------
#
# This file is available in the Crystallography Open Database (COD),
# http://www.crystallography.net/
#
# All data on this site have been placed in the public domain by the
# contributors.
#
data_1525856
loop_
_publ_author_name
'Das, A.'
'Sahana, M.'
'Yusuf, S.M.'
'Madhav Rao, L.'
'Hegde, M.S.'
'Shivakumara, C.'
_publ_section_title
;
 Magnetic structure of sodium and potassium doped lanthanum manganites
;
_journal_name_full               'Materials Research Bulletin'
_journal_page_first              651
_journal_page_last               659
_journal_volume                  35
_journal_year                    2000
_chemical_formula_sum            'K0.08 La0.83 Mn O2.86'
_chemical_name_systematic        '(La0.83 K0.08) (Mn O2.86)'
_space_group_IT_number           167
_symmetry_space_group_name_Hall  '-R 3 2"c'
_symmetry_space_group_name_H-M   'R -3 c :H'
_cell_angle_alpha                90
_cell_angle_beta                 90
_cell_angle_gamma                120
_cell_formula_units_Z            6
_cell_length_a                   5.508
_cell_length_b                   5.508
_cell_length_c                   13.35
_cell_volume                     350.752
_citation_journal_id_ASTM        MRBUAC
_cod_data_source_file            Das_MRBUAC_2000_324.cif
_cod_data_source_block           K0.08La0.83Mn1O2.86
_cod_original_cell_volume        350.7517
_cod_original_formula_sum        'K0.08 La0.83 Mn1 O2.86'
_cod_database_code               1525856
loop_
_symmetry_equiv_pos_as_xyz
x,y,z
-y,x-y,z
-x+y,-x,z
y,x,-z+1/2
-x,-x+y,-z+1/2
x-y,-y,-z+1/2
-x,-y,-z
y,-x+y,-z
x-y,x,-z
-y,-x,z-1/2
x,x-y,z-1/2
-x+y,y,z-1/2
x+2/3,y+1/3,z+1/3
-y+2/3,x-y+1/3,z+1/3
-x+y+2/3,-x+1/3,z+1/3
y+2/3,x+1/3,-z+5/6
-x+2/3,-x+y+1/3,-z+5/6
x-y+2/3,-y+1/3,-z+5/6
-x+2/3,-y+1/3,-z+1/3
y+2/3,-x+y+1/3,-z+1/3
x-y+2/3,x+1/3,-z+1/3
-y+2/3,-x+1/3,z-1/6
x+2/3,x-y+1/3,z-1/6
-x+y+2/3,y+1/3,z-1/6
x+1/3,y+2/3,z+2/3
-y+1/3,x-y+2/3,z+2/3
-x+y+1/3,-x+2/3,z+2/3
y+1/3,x+2/3,-z+7/6
-x+1/3,-x+y+2/3,-z+7/6
x-y+1/3,-y+2/3,-z+7/6
-x+1/3,-y+2/3,-z+2/3
y+1/3,-x+y+2/3,-z+2/3
x-y+1/3,x+2/3,-z+2/3
-y+1/3,-x+2/3,z+1/6
x+1/3,x-y+2/3,z+1/6
-x+y+1/3,y+2/3,z+1/6
loop_
_atom_site_label
_atom_site_type_symbol
_atom_site_fract_x
_atom_site_fract_y
_atom_site_fract_z
_atom_site_occupancy
_atom_site_U_iso_or_equiv
La1 La+3 0 0 0.25 0.83 0.0
O1 O-2 0.443 0 0.25 0.953 0.0
K1 K+1 0 0 0.25 0.08 0.0
Mn1 Mn+3 0 0 0.5 1 0.0
