#------------------------------------------------------------------------------
#$Date: 2016-02-13 21:28:24 +0200 (Sat, 13 Feb 2016) $
#$Revision: 176429 $
#$URL: svn://www.crystallography.net/cod/cif/1/52/56/1525635.cif $
#------------------------------------------------------------------------------
#
# This file is available in the Crystallography Open Database (COD),
# http://www.crystallography.net/
#
# All data on this site have been placed in the public domain by the
# contributors.
#
data_1525635
loop_
_publ_author_name
'Belik, A.A.'
'Morozov, V.A.'
'Lazoryak, B.I.'
'Khasanov, S.S.'
'Kotov, R.N.'
_publ_section_title
;
 Crystal structures of double vanadates Ca9 R (V O4)7. II. R= Tb, Dy, Ho,
 Y
;
_journal_name_full               Kristallografiya
_journal_page_first              432
_journal_page_last               437
_journal_volume                  45
_journal_year                    2000
_chemical_formula_sum            'Ca9 Dy O28 V7'
_chemical_name_systematic        'Ca9 Dy (V O4)7'
_space_group_IT_number           161
_symmetry_space_group_name_Hall  'R 3 -2"c'
_symmetry_space_group_name_H-M   'R 3 c :H'
_cell_angle_alpha                90
_cell_angle_beta                 90
_cell_angle_gamma                120
_cell_formula_units_Z            6
_cell_length_a                   10.8564
_cell_length_b                   10.8564
_cell_length_c                   38.009
_cell_volume                     3879.616
_citation_journal_id_ASTM        KRISAJ
_cod_data_source_file            Belik_KRISAJ_2000_168.cif
_cod_data_source_block           Ca9Dy1O28V7
_cod_original_formula_sum        'Ca9 Dy1 O28 V7'
_cod_database_code               1525635
loop_
_symmetry_equiv_pos_as_xyz
x,y,z
-y,x-y,z
-x+y,-x,z
-y,-x,z+1/2
x,x-y,z+1/2
-x+y,y,z+1/2
x+2/3,y+1/3,z+1/3
-y+2/3,x-y+1/3,z+1/3
-x+y+2/3,-x+1/3,z+1/3
-y+2/3,-x+1/3,z+5/6
x+2/3,x-y+1/3,z+5/6
-x+y+2/3,y+1/3,z+5/6
x+1/3,y+2/3,z+2/3
-y+1/3,x-y+2/3,z+2/3
-x+y+1/3,-x+2/3,z+2/3
-y+1/3,-x+2/3,z+7/6
x+1/3,x-y+2/3,z+7/6
-x+y+1/3,y+2/3,z+7/6
loop_
_atom_site_label
_atom_site_type_symbol
_atom_site_fract_x
_atom_site_fract_y
_atom_site_fract_z
_atom_site_occupancy
_atom_site_U_iso_or_equiv
O7 O-2 0.588 0.953 0.047 1 0.0
O3 O-2 0.693 0.899 0.176 1 0.0
Ca1 Ca+2 0.727 0.862 0.4303 0.85 0.0
O6 O-2 0.505 0.759 0.126 1 0.0
Dy2 Dy+3 0.615 0.823 0.2336 0.14 0.0
Ca2 Ca+2 0.615 0.823 0.2336 0.86 0.0
Ca3 Ca+2 0.124 0.267 0.3249 1 0.0
O8 O-2 0.574 0.684 0.052 1 0.0
O10 O-2 0.633 0.829 0.99 1 0.0
Ca4 Ca+2 0 0 0 0.87 0.0
O5 O-2 0.724 0.019 0.113 1 0.0
V2 V+5 0.686 0.859 0.1341 1 0.0
O2 O-2 0.017 0.857 0.259 1 0.0
O1 O-2 0 0 0.315 1 0.0
O9 O-2 0.834 0.915 0.05 1 0.0
V3 V+5 0.657 0.849 0.0321 1 0.0
V1 V+5 0 0 0.2679 1 0.0
Dy1 Dy+3 0.727 0.862 0.4303 0.15 0.0
O4 O-2 0.765 0.763 0.124 1 0.0
Dy3 Dy+3 0 0 0 0.13 0.0
