#------------------------------------------------------------------------------
#$Date: 2015-07-12 17:02:55 +0300 (Sun, 12 Jul 2015) $
#$Revision: 146650 $
#$URL: svn://www.crystallography.net/cod/cif/1/52/56/1525622.cif $
#------------------------------------------------------------------------------
#
# This file is available in the Crystallography Open Database (COD),
# http://www.crystallography.net/
#
# All data on this site have been placed in the public domain by the
# contributors.
#
data_1525622
loop_
_publ_author_name
'Bedoya, C.'
'Roubin, M.'
'Muller, C.'
'Baudour, J.L.'
'Anne, M.'
'Madigou, V.'
_publ_section_title
;
 Sr-doped Pb Zr1-x Tix O3 ceramic: structural study and fieldinduced
 reorientation of ferroelectric domains
;
_journal_name_full               'Materials Science and Engineering B'
_journal_page_first              43
_journal_page_last               52
_journal_volume                  75
_journal_year                    2000
_chemical_formula_sum            'O3 Pb0.94 Sr0.06 Ti0.4 Zr0.6'
_chemical_name_systematic        '(Pb0.94 Sr0.06) ((Zr0.6 Ti0.4) O3)'
_space_group_IT_number           161
_symmetry_space_group_name_Hall  'R 3 -2"c'
_symmetry_space_group_name_H-M   'R 3 c :H'
_cell_angle_alpha                90
_cell_angle_beta                 90
_cell_angle_gamma                120
_cell_formula_units_Z            6
_cell_length_a                   5.755
_cell_length_b                   5.755
_cell_length_c                   14.178
_cell_volume                     406.664
_citation_journal_id_ASTM        MSBTEK
_cod_data_source_file            Bedoya_MSBTEK_2000_339.cif
_cod_data_source_block           O3Pb0.94Sr0.06Ti0.4Zr0.6
_cod_original_cell_volume        406.6645
_cod_database_code               1525622
loop_
_symmetry_equiv_pos_as_xyz
x,y,z
-y,x-y,z
-x+y,-x,z
-y,-x,z+1/2
x,x-y,z+1/2
-x+y,y,z+1/2
x+2/3,y+1/3,z+1/3
-y+2/3,x-y+1/3,z+1/3
-x+y+2/3,-x+1/3,z+1/3
-y+2/3,-x+1/3,z+5/6
x+2/3,x-y+1/3,z+5/6
-x+y+2/3,y+1/3,z+5/6
x+1/3,y+2/3,z+2/3
-y+1/3,x-y+2/3,z+2/3
-x+y+1/3,-x+2/3,z+2/3
-y+1/3,-x+2/3,z+7/6
x+1/3,x-y+2/3,z+7/6
-x+y+1/3,y+2/3,z+7/6
loop_
_atom_site_label
_atom_site_type_symbol
_atom_site_fract_x
_atom_site_fract_y
_atom_site_fract_z
_atom_site_occupancy
_atom_site_U_iso_or_equiv
Ti1 Ti+4 0 0 0.02 0.4 0.0
Pb1 Pb+2 0 0 0.286 0.94 0.0
O1 O-2 0.172 0.344 0.0833 1 0.0
Sr1 Sr+2 0 0 0.286 0.06 0.0
Zr1 Zr+4 0 0 0.02 0.6 0.0
