#------------------------------------------------------------------------------
#$Date: 2015-07-12 16:54:22 +0300 (Sun, 12 Jul 2015) $
#$Revision: 146611 $
#$URL: svn://www.crystallography.net/cod/cif/1/52/55/1525594.cif $
#------------------------------------------------------------------------------
#
# This file is available in the Crystallography Open Database (COD),
# http://www.crystallography.net/
#
# All data on this site have been placed in the public domain by the
# contributors.
#
data_1525594
loop_
_publ_author_name
'Awana, V.P.S.'
'Cardoso, C.A.'
'Malik, S.K.'
'de Lima, O.F.'
'Yelon, W.B.'
'Gupta, A.'
'Narlikar, A.V.'
'Sedky, A.'
_publ_section_title
;
 Neutron diffraction on Er1-x Cax Ba2 Cu3 O7-d (0.0<x<0.3) system:
 possible oxygen vacancies in Cu-O2 planes
;
_journal_name_full               'Physica C (Amsterdam)'
_journal_page_first              197
_journal_page_last               204
_journal_volume                  338
_journal_year                    2000
_chemical_formula_sum            'Ba2 Ca0.29 Cu3 Er0.71 O6.74'
_chemical_name_systematic        '(Er0.71 Ca0.29) Ba2 Cu3 O6.74'
_space_group_IT_number           47
_symmetry_space_group_name_Hall  '-P 2 2'
_symmetry_space_group_name_H-M   'P m m m'
_cell_angle_alpha                90
_cell_angle_beta                 90
_cell_angle_gamma                90
_cell_formula_units_Z            1
_cell_length_a                   3.82713
_cell_length_b                   3.88389
_cell_length_c                   11.70076
_cell_volume                     173.922
_citation_journal_id_ASTM        PHYCE6
_cod_data_source_file            Awana_PHYCE6_2000_431.cif
_cod_data_source_block           Ba2Ca0.29Cu3Er0.71O6.74
_cod_original_cell_volume        173.9219
_cod_database_code               1525594
loop_
_symmetry_equiv_pos_as_xyz
x,y,z
-x,-y,z
x,-y,-z
-x,y,-z
-x,-y,-z
x,y,-z
-x,y,z
x,-y,z
loop_
_atom_site_label
_atom_site_type_symbol
_atom_site_fract_x
_atom_site_fract_y
_atom_site_fract_z
_atom_site_occupancy
_atom_site_U_iso_or_equiv
O2 O-2 0.5 0 0 0.133 0.0
O4 O-2 0 0.5 0.3771 0.973 0.0
Cu2 Cu+2 0 0 0.35705 1 0.0
Ba1 Ba+2 0.5 0.5 0.18645 1 0.0
Ca1 Ca+2 0.5 0.5 0.5 0.291 0.0
O5 O-2 0 0 0.1583 1 0.0
Er1 Er+3 0.5 0.5 0.5 0.709 0.0
O3 O-2 0.5 0 0.3771 0.973 0.0
O1 O-2 0 0.5 0 0.713 0.0
Cu1 Cu+2 0 0 0 1 0.0
