#------------------------------------------------------------------------------
#$Date: 2016-02-13 21:28:24 +0200 (Sat, 13 Feb 2016) $
#$Revision: 176429 $
#$URL: svn://www.crystallography.net/cod/cif/1/52/57/1525789.cif $
#------------------------------------------------------------------------------
#
# This file is available in the Crystallography Open Database (COD),
# http://www.crystallography.net/
#
# All data on this site have been placed in the public domain by the
# contributors.
#
data_1525789
loop_
_publ_author_name
'Lin, J.'
'Wu, X.-S.'
'Chen, W.-M.'
'Jiang, S.-S.'
_publ_section_title
;
 Crystal structure of La Ba2 Cu3 O7 with Fe-doping
;
_journal_name_full               'Diwen Wuli Xuebao'
_journal_page_first              7
_journal_page_last               14
_journal_volume                  20
_journal_year                    1998
_chemical_formula_sum            'Ba2 Cu2.97 Fe0.03 La O7'
_chemical_name_systematic        'La Ba2 (Cu0.97 Fe0.03) Cu2 O7'
_space_group_IT_number           47
_symmetry_space_group_name_Hall  '-P 2 2'
_symmetry_space_group_name_H-M   'P m m m'
_cell_angle_alpha                90
_cell_angle_beta                 90
_cell_angle_gamma                90
_cell_formula_units_Z            1
_cell_length_a                   3.917
_cell_length_b                   3.9205
_cell_length_c                   11.7828
_cell_volume                     180.944
_citation_journal_id_ASTM        DWXUES
_cod_data_source_file            Lin_DWXUES_1998_93.cif
_cod_data_source_block           Ba2Cu2.97Fe0.03La1O7
_cod_original_cell_volume        180.9437
_cod_original_formula_sum        'Ba2 Cu2.97 Fe0.03 La1 O7'
_cod_database_code               1525789
loop_
_symmetry_equiv_pos_as_xyz
x,y,z
-x,-y,z
x,-y,-z
-x,y,-z
-x,-y,-z
x,y,-z
-x,y,z
x,-y,z
loop_
_atom_site_label
_atom_site_type_symbol
_atom_site_fract_x
_atom_site_fract_y
_atom_site_fract_z
_atom_site_occupancy
_atom_site_U_iso_or_equiv
Ba1 Ba+2 0.5 0.5 0.1804 1 0.0
Cu2 Cu+2 0 0 0.353 1 0.0
La1 La+3 0.5 0.5 0.5 1 0.0
O4 O-2 0.5 0 0.353 1 0.0
Fe1 Fe+3 0 0 0 0.03 0.0
O1 O-2 0.5 0 0 0.5 0.0
O2 O-2 0 0.5 0 0.5 0.0
O3 O-2 0 0 0.133 1 0.0
O5 O-2 0 0.5 0.491 1 0.0
Cu1 Cu+2 0 0 0 0.97 0.0
