#------------------------------------------------------------------------------
#$Date: 2016-02-13 21:28:24 +0200 (Sat, 13 Feb 2016) $
#$Revision: 176429 $
#$URL: svn://www.crystallography.net/cod/cif/1/52/59/1525905.cif $
#------------------------------------------------------------------------------
#
# This file is available in the Crystallography Open Database (COD),
# http://www.crystallography.net/
#
# All data on this site have been placed in the public domain by the
# contributors.
#
data_1525905
loop_
_publ_author_name
'Dmowski, W.'
'Egami, T.'
'Davies, P.K.'
'Farber, L.'
_publ_section_title
;
 Structure of Pb (Zr, Ti) O3 near the morphotropic phase boundary
;
_journal_name_full               'AIP Conference Proceedings'
_journal_page_first              33
_journal_page_last               44
_journal_volume                  582
_journal_year                    2001
_chemical_formula_sum            'O3 Pb Ti'
_chemical_name_systematic        'Pb (Ti O3)'
_space_group_IT_number           99
_symmetry_space_group_name_Hall  'P 4 -2'
_symmetry_space_group_name_H-M   'P 4 m m'
_cell_angle_alpha                90
_cell_angle_beta                 90
_cell_angle_gamma                90
_cell_formula_units_Z            1
_cell_length_a                   3.90044
_cell_length_b                   3.90044
_cell_length_c                   4.15115
_cell_volume                     63.153
_citation_journal_id_ASTM        APCPCS
_cod_data_source_file            Dmowski_APCPCS_2001_1445.cif
_cod_data_source_block           O3Pb1Ti1
_cod_original_cell_volume        63.15324
_cod_original_formula_sum        'O3 Pb1 Ti1'
_cod_database_code               1525905
loop_
_symmetry_equiv_pos_as_xyz
x,y,z
-y,x,z
-x,-y,z
y,-x,z
-x,y,z
-y,-x,z
x,-y,z
y,x,z
loop_
_atom_site_label
_atom_site_type_symbol
_atom_site_fract_x
_atom_site_fract_y
_atom_site_fract_z
_atom_site_occupancy
_atom_site_U_iso_or_equiv
Ti1 Ti+4 0 0 0.0337 1 0.0
Pb1 Pb+2 0.5 0.5 0.5 1 0.0
O2 O-2 0 0 0.6088 1 0.0
O1 O-2 0.5 0 0.1123 1 0.0
