#------------------------------------------------------------------------------
#$Date: 2016-02-13 21:28:24 +0200 (Sat, 13 Feb 2016) $
#$Revision: 176429 $
#$URL: svn://www.crystallography.net/cod/cif/1/52/59/1525968.cif $
#------------------------------------------------------------------------------
#
# This file is available in the Crystallography Open Database (COD),
# http://www.crystallography.net/
#
# All data on this site have been placed in the public domain by the
# contributors.
#
data_1525968
loop_
_publ_author_name
'Maury, F.'
'Nanot, M.'
'Bouree, F.'
'Ollitrault-Fichet, R.'
'Nicolas-Francillon, M.'
_publ_section_title
;
 Local structural changes in lithium-doped Y Ba2 Cu3 Oy
;
_journal_name_full               'Physica C (Amsterdam)'
_journal_page_first              121
_journal_page_last               132
_journal_volume                  333
_journal_year                    2000
_chemical_formula_sum            'Ba2 Cu2.94 Li0.06 O6.91 Y'
_chemical_name_systematic        'Y Ba2 Cu2.94 Li0.06 O6.91'
_space_group_IT_number           47
_symmetry_space_group_name_Hall  '-P 2 2'
_symmetry_space_group_name_H-M   'P m m m'
_cell_angle_alpha                90
_cell_angle_beta                 90
_cell_angle_gamma                90
_cell_formula_units_Z            1
_cell_length_a                   3.8226
_cell_length_b                   3.886
_cell_length_c                   11.6737
_cell_volume                     173.408
_citation_journal_id_ASTM        PHYCE6
_cod_data_source_file            Maury_PHYCE6_2000_409.cif
_cod_data_source_block           Ba2Cu2.94Li0.06O6.91Y1
_cod_original_cell_volume        173.4084
_cod_original_formula_sum        'Ba2 Cu2.94 Li0.06 O6.91 Y1'
_cod_database_code               1525968
loop_
_symmetry_equiv_pos_as_xyz
x,y,z
-x,-y,z
x,-y,-z
-x,y,-z
-x,-y,-z
x,y,-z
-x,y,z
x,-y,z
loop_
_atom_site_label
_atom_site_type_symbol
_atom_site_fract_x
_atom_site_fract_y
_atom_site_fract_z
_atom_site_occupancy
_atom_site_U_iso_or_equiv
Cu2 Cu+2 0 0 0.3559 0.976 0.0
O3 O-2 0 0.5 0.3778 1 0.0
Cu1 Cu+2 0 0 0 0.988 0.0
O5 O-2 0.5 0.035 0 0.019 0.0
O4 O-2 0.035 0.5 0 0.466 0.0
O2 O-2 0.5 0 0.3787 1 0.0
Li1 Li+1 0 0 0 0.012 0.0
Y1 Y+3 0.5 0.5 0.5 1 0.0
Ba1 Ba+2 0.5 0.5 0.1849 1 0.0
O1 O-2 0 0 0.1578 0.97 0.0
Li2 Li+1 0 0 0.3559 0.024 0.0
