#------------------------------------------------------------------------------
#$Date: 2016-02-13 21:28:24 +0200 (Sat, 13 Feb 2016) $
#$Revision: 176429 $
#$URL: svn://www.crystallography.net/cod/cif/1/52/58/1525889.cif $
#------------------------------------------------------------------------------
#
# This file is available in the Crystallography Open Database (COD),
# http://www.crystallography.net/
#
# All data on this site have been placed in the public domain by the
# contributors.
#
data_1525889
loop_
_publ_author_name
'Machida, A.'
'Moritomo, Y.'
'Ohoyama, K.'
'Nakamura, A.'
_publ_section_title
;
 Neutron investigation of Tb1-x Cax Mn O3 (x >= 0.5)
;
_journal_name_full               'Journal of the Physical Society of Japan'
_journal_page_first              3739
_journal_page_last               3746
_journal_volume                  70
_journal_year                    2001
_chemical_formula_sum            'Ca0.75 Mn O3.036 Tb0.25'
_chemical_name_systematic        '(Tb0.25 Ca0.75) Mn O3.036'
_space_group_IT_number           62
_symmetry_space_group_name_Hall  '-P 2c 2ab'
_symmetry_space_group_name_H-M   'P b n m'
_cell_angle_alpha                90
_cell_angle_beta                 90
_cell_angle_gamma                90
_cell_formula_units_Z            4
_cell_length_a                   5.3028
_cell_length_b                   5.3449
_cell_length_c                   7.488
_cell_volume                     212.232
_citation_journal_id_ASTM        JUPSAU
_cod_data_source_file            Machida_JUPSAU_2001_1825.cif
_cod_data_source_block           Ca0.75Mn1O3.036Tb0.25
_cod_original_cell_volume        212.2319
_cod_original_sg_symbol_Hall     '-P 2ac 2n (z,x,y)'
_cod_original_formula_sum        'Ca0.75 Mn1 O3.036 Tb0.25'
_cod_database_code               1525889
loop_
_symmetry_equiv_pos_as_xyz
x,y,z
x+1/2,-y+1/2,-z
-x+1/2,y+1/2,-z+1/2
-x,-y,z+1/2
-x,-y,-z
-x-1/2,y-1/2,z
x-1/2,-y-1/2,z-1/2
x,y,-z-1/2
loop_
_atom_site_label
_atom_site_type_symbol
_atom_site_fract_x
_atom_site_fract_y
_atom_site_fract_z
_atom_site_occupancy
_atom_site_U_iso_or_equiv
Tb1 Tb+3 0.0057 -0.0387 0.25 0.25 0.0
O1 O-2 0.9292 0.5137 0.25 1.012 0.0
O2 O-2 0.29 0.7111 0.0371 1.012 0.0
Mn1 Mn+3 0.5 0 0 1 0.0
Ca1 Ca+2 0.0057 -0.0387 0.25 0.75 0.0
