#------------------------------------------------------------------------------
#$Date: 2016-02-13 21:28:24 +0200 (Sat, 13 Feb 2016) $
#$Revision: 176429 $
#$URL: svn://www.crystallography.net/cod/cif/1/52/57/1525776.cif $
#------------------------------------------------------------------------------
#
# This file is available in the Crystallography Open Database (COD),
# http://www.crystallography.net/
#
# All data on this site have been placed in the public domain by the
# contributors.
#
data_1525776
loop_
_publ_author_name
'Chmaissem, O.'
'Jorgensen, J.D.'
'Dollar, P.'
'Shaked, H.'
'Tallon, J.L.'
_publ_section_title
;
 Crystal and magnetic structure of ferromagnetic superconducting Ru Sr2 Gd
 Cu2 O8
;
_journal_name_full
'Physical Review, Serie 3. B - Condensed Matter (18,1978-)'
_journal_page_first              6401
_journal_page_last               6407
_journal_volume                  61
_journal_year                    2000
_chemical_formula_sum            'Cu2 Gd O8 Ru Sr2'
_chemical_name_systematic        'Ru Sr2 Gd Cu2 O8'
_space_group_IT_number           123
_symmetry_space_group_name_Hall  '-P 4 2'
_symmetry_space_group_name_H-M   'P 4/m m m'
_cell_angle_alpha                90
_cell_angle_beta                 90
_cell_angle_gamma                90
_cell_formula_units_Z            1
_cell_length_a                   3.83599
_cell_length_b                   3.83599
_cell_length_c                   11.5628
_cell_volume                     170.145
_citation_journal_id_ASTM        PRBMDO
_cod_data_source_file            Chmaissem_PRBMDO_2000_465.cif
_cod_data_source_block           Cu2Gd1O8Ru1Sr2
_cod_original_cell_volume        170.1445
_cod_original_formula_sum        'Cu2 Gd1 O8 Ru1 Sr2'
_cod_database_code               1525776
loop_
_symmetry_equiv_pos_as_xyz
x,y,z
-y,x,z
-x,-y,z
y,-x,z
x,-y,-z
y,x,-z
-x,y,-z
-y,-x,-z
-x,-y,-z
y,-x,-z
x,y,-z
-y,x,-z
-x,y,z
-y,-x,z
x,-y,z
y,x,z
loop_
_atom_site_label
_atom_site_type_symbol
_atom_site_fract_x
_atom_site_fract_y
_atom_site_fract_z
_atom_site_occupancy
_atom_site_U_iso_or_equiv
Cu1 Cu+2 0 0 0.3547 1 0.0
Ru1 Ru+5 0 0 0 1 0.0
O2 O-2 0.5 0 0.3714 1 0.0
Sr1 Sr+2 0.5 0.5 0.1903 1 0.0
Gd1 Gd+3 0.5 0.5 0.5 1 0.0
O3 O-2 0 0 0.1653 1 0.0
O1 O-2 0.1228 0.5 0 0.49 0.0
