#------------------------------------------------------------------------------
#$Date: 2016-02-13 21:28:24 +0200 (Sat, 13 Feb 2016) $
#$Revision: 176429 $
#$URL: svn://www.crystallography.net/cod/cif/1/52/55/1525550.cif $
#------------------------------------------------------------------------------
#
# This file is available in the Crystallography Open Database (COD),
# http://www.crystallography.net/
#
# All data on this site have been placed in the public domain by the
# contributors.
#
data_1525550
loop_
_publ_author_name
'Adler, P.'
'Eriksson, S.'
_publ_section_title
;
 Structural properties, Moessbauer spectra and magnetism of
 perovskite-type oxides Sr Fe1-x Tix O3-y
;
_journal_name_full
'Zeitschrift fuer Anorganische und Allgemeine Chemie'
_journal_page_first              118
_journal_page_last               124
_journal_volume                  626
_journal_year                    2000
_chemical_formula_sum            'Fe0.5 O2.9 Sr Ti0.5'
_chemical_name_systematic        'Sr (Fe0.5 Ti0.5) O2.9'
_space_group_IT_number           221
_symmetry_space_group_name_Hall  '-P 4 2 3'
_symmetry_space_group_name_H-M   'P m -3 m'
_cell_angle_alpha                90
_cell_angle_beta                 90
_cell_angle_gamma                90
_cell_formula_units_Z            1
_cell_length_a                   3.88521
_cell_length_b                   3.88521
_cell_length_c                   3.88521
_cell_volume                     58.647
_citation_journal_id_ASTM        ZAACAB
_cod_data_source_file            Adler_ZAACAB_2000_689.cif
_cod_data_source_block           Fe0.5O2.9Sr1Ti0.5
_cod_original_cell_volume        58.64669
_cod_original_formula_sum        'Fe0.5 O2.9 Sr1 Ti0.5'
_cod_database_code               1525550
loop_
_symmetry_equiv_pos_as_xyz
x,y,z
-y,x,z
-x,-y,z
y,-x,z
x,-y,-z
y,x,-z
-x,y,-z
-y,-x,-z
z,x,y
-x,z,y
-z,-x,y
x,-z,y
z,-x,-y
x,z,-y
-z,x,-y
-x,-z,-y
y,z,x
y,-z,-x
z,y,-x
-y,z,-x
-z,-y,-x
-y,-z,x
z,-y,x
-z,y,x
-x,-y,-z
y,-x,-z
x,y,-z
-y,x,-z
-x,y,z
-y,-x,z
x,-y,z
y,x,z
-z,-x,-y
x,-z,-y
z,x,-y
-x,z,-y
-z,x,y
-x,-z,y
z,-x,y
x,z,y
-y,-z,-x
-y,z,x
-z,-y,x
y,-z,x
z,y,x
y,z,-x
-z,y,-x
z,-y,-x
loop_
_atom_site_label
_atom_site_type_symbol
_atom_site_fract_x
_atom_site_fract_y
_atom_site_fract_z
_atom_site_occupancy
_atom_site_U_iso_or_equiv
Fe1 Fe+3 0.5 0.5 0.5 0.5 0.0
O1 O-2 0 0.5 0.5 0.967 0.0
Sr1 Sr+2 0 0 0 1 0.0
Ti1 Ti+4 0.5 0.5 0.5 0.5 0.0
