#------------------------------------------------------------------------------
#$Date: 2015-07-12 20:55:18 +0300 (Sun, 12 Jul 2015) $
#$Revision: 148034 $
#$URL: svn://www.crystallography.net/cod/cif/1/52/67/1526789.cif $
#------------------------------------------------------------------------------
#
# This file is available in the Crystallography Open Database (COD),
# http://www.crystallography.net/
#
# All data on this site have been placed in the public domain by the
# contributors.
#
data_1526789
loop_
_publ_author_name
'Teplykh, A.E.'
'Pirogov, A.N.'
'Men'shikov, A.Z.'
'Bazuev, G.V.'
_publ_section_title
;
 Crystal structure and magnetic state of the La Mn1-x Vx O3 perovskites
;
_journal_name_full               'Physics of the Solid State'
_journal_page_first              2241
_journal_page_last               2249
_journal_volume                  42
_journal_year                    2000
_chemical_formula_sum            'La0.99 Mn0.297 O3 V0.693'
_chemical_name_systematic        'La0.99 (Mn0.297 V0.693) O3'
_space_group_IT_number           62
_symmetry_space_group_name_Hall  '-P 2ac 2n'
_symmetry_space_group_name_H-M   'P n m a'
_cell_angle_alpha                90
_cell_angle_beta                 90
_cell_angle_gamma                90
_cell_formula_units_Z            4
_cell_length_a                   5.589
_cell_length_b                   7.863
_cell_length_c                   5.559
_cell_volume                     244.298
_citation_journal_id_ASTM        PSOSED
_cod_data_source_file            Teplykh_PSOSED_2000_517.cif
_cod_data_source_block           La0.99Mn0.297O3V0.693
_cod_original_cell_volume        244.2975
_cod_database_code               1526789
loop_
_symmetry_equiv_pos_as_xyz
x,y,z
-x+1/2,-y,z+1/2
x+1/2,-y+1/2,-z+1/2
-x,y+1/2,-z
-x,-y,-z
x-1/2,y,-z-1/2
-x-1/2,y-1/2,z-1/2
x,-y-1/2,z
loop_
_atom_site_label
_atom_site_type_symbol
_atom_site_fract_x
_atom_site_fract_y
_atom_site_fract_z
_atom_site_occupancy
_atom_site_U_iso_or_equiv
O1 O-2 -0.0169 0.25 -0.071 1 0.0
V1 V+3 0 0 0 0.693 0.0
Mn1 Mn+3 0 0 0 0.297 0.0
La1 La+3 0.5333 0.25 0.0058 0.99 0.0
O2 O-2 0.2926 0.0422 0.2176 1 0.0
