#------------------------------------------------------------------------------
#$Date: 2016-02-13 21:28:24 +0200 (Sat, 13 Feb 2016) $
#$Revision: 176429 $
#$URL: svn://www.crystallography.net/cod/cif/1/52/68/1526871.cif $
#------------------------------------------------------------------------------
#
# This file is available in the Crystallography Open Database (COD),
# http://www.crystallography.net/
#
# All data on this site have been placed in the public domain by the
# contributors.
#
data_1526871
loop_
_publ_author_name
'Vasylechko, L.'
'Fink-Finowicki, J.'
'Berkowski, M.'
'Savytskii, D.'
'Matkovskii, A.'
_publ_section_title
;
 Crystal structure of La1-x Ndx Ga O3 single crystals (0 < x < 0.2)
;
_journal_name_full               'Materials Research Bulletin'
_journal_page_first              333
_journal_page_last               340
_journal_volume                  35
_journal_year                    2000
_chemical_formula_sum            'Ga La0.8 Nd0.2 O3'
_chemical_name_systematic        '(La0.8 Nd0.2) (Ga O3)'
_space_group_IT_number           62
_symmetry_space_group_name_Hall  '-P 2c 2ab'
_symmetry_space_group_name_H-M   'P b n m'
_cell_angle_alpha                90
_cell_angle_beta                 90
_cell_angle_gamma                90
_cell_formula_units_Z            4
_cell_length_a                   5.50279
_cell_length_b                   5.49054
_cell_length_c                   7.7663
_cell_volume                     234.645
_citation_journal_id_ASTM        MRBUAC
_cod_data_source_file            Vasylechko_MRBUAC_2000_318.cif
_cod_data_source_block           Ga1La0.8Nd0.2O3
_cod_original_cell_volume        234.6455
_cod_original_sg_symbol_Hall     '-P 2ac 2n (z,x,y)'
_cod_original_formula_sum        'Ga1 La0.8 Nd0.2 O3'
_cod_database_code               1526871
loop_
_symmetry_equiv_pos_as_xyz
x,y,z
x+1/2,-y+1/2,-z
-x+1/2,y+1/2,-z+1/2
-x,-y,z+1/2
-x,-y,-z
-x-1/2,y-1/2,z
x-1/2,-y-1/2,z-1/2
x,y,-z-1/2
loop_
_atom_site_label
_atom_site_type_symbol
_atom_site_fract_x
_atom_site_fract_y
_atom_site_fract_z
_atom_site_occupancy
_atom_site_U_iso_or_equiv
La1 La+3 -0.0045 0.0238 0.25 0.8 0.0
Ga1 Ga+3 0.5 0 0 1 0.0
Nd1 Nd+3 -0.0045 0.0238 0.25 0.2 0.0
O2 O-2 0.72 0.28 0.0407 1 0.0
O1 O-2 0.074 0.496 0.25 1 0.0
