#------------------------------------------------------------------------------
#$Date: 2015-07-12 19:33:38 +0300 (Sun, 12 Jul 2015) $
#$Revision: 147509 $
#$URL: svn://www.crystallography.net/cod/cif/1/52/63/1526345.cif $
#------------------------------------------------------------------------------
#
# This file is available in the Crystallography Open Database (COD),
# http://www.crystallography.net/
#
# All data on this site have been placed in the public domain by the
# contributors.
#
data_1526345
loop_
_publ_author_name
'Reid, A.F.'
'Sabine, T.M.'
'Wheeler, D.A.'
_publ_section_title
;
 Neutron Diffraction and Other Studies of Magnetic Ordering in Phases
 Based on Cr2 O3, V2 O3 and Ti2 O3
;
_journal_name_full               'Journal of Solid State Chemistry'
_journal_page_first              400
_journal_page_last               409
_journal_volume                  4
_journal_year                    1972
_chemical_formula_sum            'Cr0.1 O3 V1.9'
_chemical_name_systematic        '(V.95 Cr.05)2 O3'
_space_group_IT_number           167
_symmetry_space_group_name_Hall  '-R 3 2"c'
_symmetry_space_group_name_H-M   'R -3 c :H'
_cell_angle_alpha                90
_cell_angle_beta                 90
_cell_angle_gamma                120
_cell_formula_units_Z            6
_cell_length_a                   4.998
_cell_length_b                   4.998
_cell_length_c                   13.909
_cell_volume                     300.898
_citation_journal_id_ASTM        JSSCBI
_cod_data_source_file            Reid_JSSCBI_1972_1857.cif
_cod_data_source_block           Cr0.1O3V1.9
_cod_original_cell_volume        300.8979
_cod_database_code               1526345
loop_
_symmetry_equiv_pos_as_xyz
x,y,z
-y,x-y,z
-x+y,-x,z
y,x,-z+1/2
-x,-x+y,-z+1/2
x-y,-y,-z+1/2
-x,-y,-z
y,-x+y,-z
x-y,x,-z
-y,-x,z-1/2
x,x-y,z-1/2
-x+y,y,z-1/2
x+2/3,y+1/3,z+1/3
-y+2/3,x-y+1/3,z+1/3
-x+y+2/3,-x+1/3,z+1/3
y+2/3,x+1/3,-z+5/6
-x+2/3,-x+y+1/3,-z+5/6
x-y+2/3,-y+1/3,-z+5/6
-x+2/3,-y+1/3,-z+1/3
y+2/3,-x+y+1/3,-z+1/3
x-y+2/3,x+1/3,-z+1/3
-y+2/3,-x+1/3,z-1/6
x+2/3,x-y+1/3,z-1/6
-x+y+2/3,y+1/3,z-1/6
x+1/3,y+2/3,z+2/3
-y+1/3,x-y+2/3,z+2/3
-x+y+1/3,-x+2/3,z+2/3
y+1/3,x+2/3,-z+7/6
-x+1/3,-x+y+2/3,-z+7/6
x-y+1/3,-y+2/3,-z+7/6
-x+1/3,-y+2/3,-z+2/3
y+1/3,-x+y+2/3,-z+2/3
x-y+1/3,x+2/3,-z+2/3
-y+1/3,-x+2/3,z+1/6
x+1/3,x-y+2/3,z+1/6
-x+y+1/3,y+2/3,z+1/6
loop_
_atom_site_label
_atom_site_type_symbol
_atom_site_fract_x
_atom_site_fract_y
_atom_site_fract_z
_atom_site_occupancy
_atom_site_U_iso_or_equiv
Cr1 Cr+3 0 0 0.346 0.05 0.0
V1 V+3 0 0 0.346 0.95 0.0
O1 O-2 0.306 0 0.25 1 0.0
