#------------------------------------------------------------------------------
#$Date: 2016-02-13 21:28:24 +0200 (Sat, 13 Feb 2016) $
#$Revision: 176429 $
#$URL: svn://www.crystallography.net/cod/cif/1/52/68/1526802.cif $
#------------------------------------------------------------------------------
#
# This file is available in the Crystallography Open Database (COD),
# http://www.crystallography.net/
#
# All data on this site have been placed in the public domain by the
# contributors.
#
data_1526802
loop_
_publ_author_name
'Kuz'micheva, G.M.'
'Gaister, A.V.'
'Rybakov, V.B.'
'Zharikov, E.V.'
_publ_section_title
;
 Structure and properties of Li Ga O2 crystals
;
_journal_name_full
;
Inorganic Materials (USSR) (see: Izv.Akad.Nauk, Neorg.Mater.)
;
_journal_page_first              281
_journal_page_last               285
_journal_volume                  37
_journal_year                    2001
_chemical_formula_sum            'Ga Li O2'
_chemical_name_systematic        'Li (Ga O2)'
_space_group_IT_number           33
_symmetry_space_group_name_Hall  'P 2c -2n'
_symmetry_space_group_name_H-M   'P n a 21'
_cell_angle_alpha                90
_cell_angle_beta                 90
_cell_angle_gamma                90
_cell_formula_units_Z            4
_cell_length_a                   5.395
_cell_length_b                   6.367
_cell_length_c                   5.005
_cell_volume                     171.922
_citation_journal_id_ASTM        INOMAF
_cod_data_source_file            Kuzmicheva_INOMAF_2001_1098.cif
_cod_data_source_block           Ga1Li1O2
_cod_original_cell_volume        171.9216
_cod_original_formula_sum        'Ga1 Li1 O2'
_cod_database_code               1526802
loop_
_symmetry_equiv_pos_as_xyz
x,y,z
-x,-y,z+1/2
-x+1/2,y+1/2,z+1/2
x+1/2,-y+1/2,z
loop_
_atom_site_label
_atom_site_type_symbol
_atom_site_fract_x
_atom_site_fract_y
_atom_site_fract_z
_atom_site_occupancy
_atom_site_U_iso_or_equiv
Li1 Li+1 0.418 0.128 0.51 1 0.0
O2 O-2 0.0682 0.1117 0.3695 1 0.0
Ga1 Ga+3 0.08226 0.12627 0 1 0.0
O1 O-2 0.4069 0.1376 0.8937 1 0.0
