#------------------------------------------------------------------------------
#$Date: 2016-02-13 21:28:24 +0200 (Sat, 13 Feb 2016) $
#$Revision: 176429 $
#$URL: svn://www.crystallography.net/cod/cif/1/52/66/1526620.cif $
#------------------------------------------------------------------------------
#
# This file is available in the Crystallography Open Database (COD),
# http://www.crystallography.net/
#
# All data on this site have been placed in the public domain by the
# contributors.
#
data_1526620
loop_
_publ_author_name
'Shivakumara, C.'
'Hegde, M.S.'
'Rajagopal, H.'
'Sequiera, A.'
_publ_section_title
;
 Neutron diffraction studies of La4 Ba Cu4 M O13+d (M = Ni and Co) oxides
;
_journal_name_full               'Materials Research Bulletin'
_journal_page_first              2063
_journal_page_last               2068
_journal_volume                  35
_journal_year                    2000
_chemical_formula_sum            'Ba Cu4 La4 Ni O13.3'
_chemical_name_systematic        'La4 Ba Cu4 Ni O13.3'
_space_group_IT_number           83
_symmetry_space_group_name_Hall  '-P 4'
_symmetry_space_group_name_H-M   'P 4/m'
_cell_angle_alpha                90
_cell_angle_beta                 90
_cell_angle_gamma                90
_cell_formula_units_Z            1
_cell_length_a                   8.699
_cell_length_b                   8.699
_cell_length_c                   3.876
_cell_volume                     293.307
_citation_journal_id_ASTM        MRBUAC
_cod_data_source_file            Shivakumara_MRBUAC_2000_305.cif
_cod_data_source_block           Ba1Cu4La4Ni1O13.3
_cod_original_formula_sum        'Ba1 Cu4 La4 Ni1 O13.3'
_cod_database_code               1526620
loop_
_symmetry_equiv_pos_as_xyz
x,y,z
-y,x,z
-x,-y,z
y,-x,z
-x,-y,-z
y,-x,-z
x,y,-z
-y,x,-z
loop_
_atom_site_label
_atom_site_type_symbol
_atom_site_fract_x
_atom_site_fract_y
_atom_site_fract_z
_atom_site_occupancy
_atom_site_U_iso_or_equiv
Ba1 Ba+2 0.5 0.5 0.5 1 0.0
Ni1 Ni+3 0 0 0 0.34 0.0
O3 O-2 0.2773 0.3953 0 1 0.0
O1 O-2 0 0 0.5 1 0.0
O5 O-2 0.4226 0.1507 0.5 1 0.0
O4 O-2 0.227 0.071 0 1 0.0
O2 O-2 0 0.5 0 0.15 0.0
Cu2 Cu+2 0.4085 0.1791 0 0.835 0.0
Cu1 Cu+2 0 0 0 0.66 0.0
La1 La+3 0.1251 0.2787 0.5 1 0.0
Ni2 Ni+3 0.4085 0.1791 0 0.165 0.0
