#------------------------------------------------------------------------------
#$Date: 2016-02-13 21:28:24 +0200 (Sat, 13 Feb 2016) $
#$Revision: 176429 $
#$URL: svn://www.crystallography.net/cod/cif/1/52/69/1526969.cif $
#------------------------------------------------------------------------------
#
# This file is available in the Crystallography Open Database (COD),
# http://www.crystallography.net/
#
# All data on this site have been placed in the public domain by the
# contributors.
#
data_1526969
loop_
_publ_author_name
'Wu, X.S.'
'Wang, F.Z.'
'Nie, S.'
'Liu, J.S.'
'Yang, L.'
'Jiang, S.S.'
_publ_section_title
;
 Structure and superconductivity in Y Ba2 Cu3 Oy with additives of Na N O3
 and Na Cl
;
_journal_name_full               'Physica C (Amsterdam)'
_journal_page_first              129
_journal_page_last               136
_journal_volume                  339
_journal_year                    2000
_chemical_formula_sum            'Ba1.87 Cu3 Na0.13 O7 Y'
_chemical_name_systematic        'Y (Ba1.87 Na0.13) Cu3 O7'
_space_group_IT_number           47
_symmetry_space_group_name_Hall  '-P 2 2'
_symmetry_space_group_name_H-M   'P m m m'
_cell_angle_alpha                90
_cell_angle_beta                 90
_cell_angle_gamma                90
_cell_formula_units_Z            1
_cell_length_a                   3.8719
_cell_length_b                   3.8101
_cell_length_c                   11.6538
_cell_volume                     171.921
_citation_journal_id_ASTM        PHYCE6
_cod_data_source_file            Wu_PHYCE6_2000_442.cif
_cod_data_source_block           Ba1.87Cu3Na0.13O7Y1
_cod_original_cell_volume        171.9207
_cod_original_formula_sum        'Ba1.87 Cu3 Na0.13 O7 Y1'
_cod_database_code               1526969
loop_
_symmetry_equiv_pos_as_xyz
x,y,z
-x,-y,z
x,-y,-z
-x,y,-z
-x,-y,-z
x,y,-z
-x,y,z
x,-y,z
loop_
_atom_site_label
_atom_site_type_symbol
_atom_site_fract_x
_atom_site_fract_y
_atom_site_fract_z
_atom_site_occupancy
_atom_site_U_iso_or_equiv
O3 O-2 0 0 0.1702 1 0.0
O5 O-2 0 0.5 0.3721 1 0.0
O2 O-2 0.5 0 0 0.5 0.0
Cu1 Cu+2 0 0 0 1 0.0
Na1 Na+1 0.5 0.5 0.1839 0.065 0.0
Y1 Y+3 0.5 0.5 0.5 1 0.0
Cu2 Cu+2 0 0 0.3588 1 0.0
O1 O-2 0 0.5 0 0.5 0.0
Ba1 Ba+2 0.5 0.5 0.1839 0.935 0.0
O4 O-2 0.5 0 0.3836 1 0.0
