#------------------------------------------------------------------------------
#$Date: 2016-02-13 21:28:24 +0200 (Sat, 13 Feb 2016) $
#$Revision: 176429 $
#$URL: svn://www.crystallography.net/cod/cif/1/52/60/1526044.cif $
#------------------------------------------------------------------------------
#
# This file is available in the Crystallography Open Database (COD),
# http://www.crystallography.net/
#
# All data on this site have been placed in the public domain by the
# contributors.
#
data_1526044
loop_
_publ_author_name
'Friedt, O.'
'Nakatsuji, S.'
'Andre, G.'
'Adelmann, P.'
'Braden, M.'
'Maeno, Y.'
_publ_section_title
;
 Structural and magnetic aspects of the metal-insulator transition in
 Ca2-x Srx Ru O4
;
_journal_name_full
'Physical Review, Serie 3. B - Condensed Matter (18,1978-)'
_journal_page_first              1744321
_journal_page_last               17443210
_journal_volume                  63
_journal_year                    2001
_chemical_formula_sum            'Ca2 O4 Ru'
_chemical_name_systematic        'Ca2 (Ru O4)'
_space_group_IT_number           61
_symmetry_space_group_name_Hall  '-P 2ac 2ab'
_symmetry_space_group_name_H-M   'P b c a'
_cell_angle_alpha                90
_cell_angle_beta                 90
_cell_angle_gamma                90
_cell_formula_units_Z            4
_cell_length_a                   5.3945
_cell_length_b                   5.5999
_cell_length_c                   11.7653
_cell_volume                     355.414
_citation_journal_id_ASTM        PRBMDO
_cod_data_source_file            Friedt_PRBMDO_2001_1886.cif
_cod_data_source_block           Ca2O4Ru1
_cod_original_cell_volume        355.4139
_cod_original_formula_sum        'Ca2 O4 Ru1'
_cod_database_code               1526044
loop_
_symmetry_equiv_pos_as_xyz
x,y,z
-x+1/2,-y,z+1/2
x+1/2,-y+1/2,-z
-x,y+1/2,-z+1/2
-x,-y,-z
x-1/2,y,-z-1/2
-x-1/2,y-1/2,z
x,-y-1/2,z-1/2
loop_
_atom_site_label
_atom_site_type_symbol
_atom_site_fract_x
_atom_site_fract_y
_atom_site_fract_z
_atom_site_occupancy
_atom_site_U_iso_or_equiv
Ca1 Ca+2 0.0042 0.0559 0.3524 1 0.0
O1 O-2 0.1961 0.3018 0.0264 1 0.0
O2 O-2 -0.0673 -0.0218 0.1645 1 0.0
Ru1 Ru+4 0 0 0 1 0.0
