#------------------------------------------------------------------------------
#$Date: 2015-07-12 22:02:00 +0300 (Sun, 12 Jul 2015) $
#$Revision: 148316 $
#$URL: svn://www.crystallography.net/cod/cif/1/52/70/1527028.cif $
#------------------------------------------------------------------------------
#
# This file is available in the Crystallography Open Database (COD),
# http://www.crystallography.net/
#
# All data on this site have been placed in the public domain by the
# contributors.
#
data_1527028
loop_
_publ_author_name
'Yoon, B.Y.'
'Song, M.K.'
'Lee, S.H.'
'Kim, Y.'
_publ_section_title
;
 Two anhydrous zeolite X crystal structures, Pd18 Tl56 Si100 Al92 O384 and
 Pd21 Tl50 Si100 Al92 O384
;
_journal_name_full               'Bulletin of the Korean Chemical Society'
_journal_page_first              30
_journal_page_last               36
_journal_volume                  22
_journal_year                    2001
_chemical_formula_sum            'Al92 O384 Pd18 Si100 Tl56'
_chemical_name_systematic        'Pd18 Tl56 (Si100 Al92 O384)'
_space_group_IT_number           203
_symmetry_space_group_name_Hall  '-F 2uv 2vw 3'
_symmetry_space_group_name_H-M   'F d -3 :2'
_cell_angle_alpha                90
_cell_angle_beta                 90
_cell_angle_gamma                90
_cell_formula_units_Z            1
_cell_length_a                   24.935
_cell_length_b                   24.935
_cell_length_c                   24.935
_cell_volume                     15503.442
_citation_journal_id_ASTM        BKCSDE
_cod_data_source_file            Yoon_BKCSDE_2001_918.cif
_cod_data_source_block           Al92O384Pd18Si100Tl56
_cod_original_cell_volume        15503.44
_cod_database_code               1527028
loop_
_symmetry_equiv_pos_as_xyz
x,y,z
-x+1/4,-y+1/4,z
x,-y+1/4,-z+1/4
-x+1/4,y,-z+1/4
z,x,y
-z+1/4,-x+1/4,y
z,-x+1/4,-y+1/4
-z+1/4,x,-y+1/4
y,z,x
y,-z+1/4,-x+1/4
-y+1/4,z,-x+1/4
-y+1/4,-z+1/4,x
-x,-y,-z
x-1/4,y-1/4,-z
-x,y-1/4,z-1/4
x-1/4,-y,z-1/4
-z,-x,-y
z-1/4,x-1/4,-y
-z,x-1/4,y-1/4
z-1/4,-x,y-1/4
-y,-z,-x
-y,z-1/4,x-1/4
y-1/4,-z,x-1/4
y-1/4,z-1/4,-x
x,y+1/2,z+1/2
-x+1/4,-y+3/4,z+1/2
x,-y+3/4,-z+3/4
-x+1/4,y+1/2,-z+3/4
z,x+1/2,y+1/2
-z+1/4,-x+3/4,y+1/2
z,-x+3/4,-y+3/4
-z+1/4,x+1/2,-y+3/4
y,z+1/2,x+1/2
y,-z+3/4,-x+3/4
-y+1/4,z+1/2,-x+3/4
-y+1/4,-z+3/4,x+1/2
-x,-y+1/2,-z+1/2
x-1/4,y+1/4,-z+1/2
-x,y+1/4,z+1/4
x-1/4,-y+1/2,z+1/4
-z,-x+1/2,-y+1/2
z-1/4,x+1/4,-y+1/2
-z,x+1/4,y+1/4
z-1/4,-x+1/2,y+1/4
-y,-z+1/2,-x+1/2
-y,z+1/4,x+1/4
y-1/4,-z+1/2,x+1/4
y-1/4,z+1/4,-x+1/2
x+1/2,y,z+1/2
-x+3/4,-y+1/4,z+1/2
x+1/2,-y+1/4,-z+3/4
-x+3/4,y,-z+3/4
z+1/2,x,y+1/2
-z+3/4,-x+1/4,y+1/2
z+1/2,-x+1/4,-y+3/4
-z+3/4,x,-y+3/4
y+1/2,z,x+1/2
y+1/2,-z+1/4,-x+3/4
-y+3/4,z,-x+3/4
-y+3/4,-z+1/4,x+1/2
-x+1/2,-y,-z+1/2
x+1/4,y-1/4,-z+1/2
-x+1/2,y-1/4,z+1/4
x+1/4,-y,z+1/4
-z+1/2,-x,-y+1/2
z+1/4,x-1/4,-y+1/2
-z+1/2,x-1/4,y+1/4
z+1/4,-x,y+1/4
-y+1/2,-z,-x+1/2
-y+1/2,z-1/4,x+1/4
y+1/4,-z,x+1/4
y+1/4,z-1/4,-x+1/2
x+1/2,y+1/2,z
-x+3/4,-y+3/4,z
x+1/2,-y+3/4,-z+1/4
-x+3/4,y+1/2,-z+1/4
z+1/2,x+1/2,y
-z+3/4,-x+3/4,y
z+1/2,-x+3/4,-y+1/4
-z+3/4,x+1/2,-y+1/4
y+1/2,z+1/2,x
y+1/2,-z+3/4,-x+1/4
-y+3/4,z+1/2,-x+1/4
-y+3/4,-z+3/4,x
-x+1/2,-y+1/2,-z
x+1/4,y+1/4,-z
-x+1/2,y+1/4,z-1/4
x+1/4,-y+1/2,z-1/4
-z+1/2,-x+1/2,-y
z+1/4,x+1/4,-y
-z+1/2,x+1/4,y-1/4
z+1/4,-x+1/2,y-1/4
-y+1/2,-z+1/2,-x
-y+1/2,z+1/4,x-1/4
y+1/4,-z+1/2,x-1/4
y+1/4,z+1/4,-x
loop_
_atom_site_label
_atom_site_type_symbol
_atom_site_fract_x
_atom_site_fract_y
_atom_site_fract_z
_atom_site_occupancy
_atom_site_U_iso_or_equiv
O1 O-2 0.8942 0 0.1027 1 0.0
Al1 Al+3 -0.054 0.0369 0.1247 0.9583 0.0
Pd1 Pd+2 0.0416 0.0416 0.0416 0.5625 0.0
Tl2 Tl+1 0.2556 0.2556 0.2556 0.8437 0.0
Si1 Si+4 -0.054 0.0369 0.1247 0.0417 0.0
O2 O-2 -0.001 -0.0018 0.1429 1 0.0
O4 O-2 -0.0702 0.0741 0.1777 1 0.0
O3 O-2 -0.0288 0.076 0.0727 1 0.0
Si2 Si+4 -0.053 0.1253 0.0357 1 0.0
Tl3 Tl+1 0.4094 0.1138 0.124 0.1146 0.0
Tl1 Tl+1 0.0752 0.0752 0.0752 0.4375 0.0
Tl4 Tl+1 0.4196 0.0676 0.0693 0.0417 0.0
