#------------------------------------------------------------------------------
#$Date: 2018-09-27 07:13:35 +0300 (Thu, 27 Sep 2018) $
#$Revision: 211196 $
#$URL: file:///home/coder/svn-repositories/cod/cif/1/52/72/1527229.cif $
#------------------------------------------------------------------------------
#
# This file is available in the Crystallography Open Database (COD),
# http://www.crystallography.net/
#
# All data on this site have been placed in the public domain by the
# contributors.
#
data_1527229
loop_
_publ_author_name
'Chenavas, J.'
'Marezio, M.'
'Joubert, J.C.'
'Bochu, B.'
_publ_section_title
;
 The synthesis and crystal structure of Ca Cu3 Mn4 O12: A new
 ferromagnetic-Perovskite-like compound
;
_journal_name_full               'Journal of Solid State Chemistry'
_journal_page_first              25
_journal_page_last               32
_journal_volume                  14
_journal_year                    1975
_chemical_formula_sum            'Ca Cu3 Mn4 O12'
_space_group_IT_number           204
_symmetry_space_group_name_Hall  '-I 2 2 3'
_symmetry_space_group_name_H-M   'I m -3'
_cell_angle_alpha                90
_cell_angle_beta                 90
_cell_angle_gamma                90
_cell_formula_units_Z            2
_cell_length_a                   7.241
_cell_length_b                   7.241
_cell_length_c                   7.241
_cell_volume                     379.661
_citation_journal_id_ASTM        JSSCBI
_cod_data_source_file            Chenavas_JSSCBI_1975_1645.cif
_cod_data_source_block           Ca1Cu3Mn4O12
_cod_original_cell_volume        379.6607
_cod_original_formula_sum        'Ca1 Cu3 Mn4 O12'
_cod_database_code               1527229
loop_
_symmetry_equiv_pos_as_xyz
x,y,z
-x,-y,z
x,-y,-z
-x,y,-z
z,x,y
-z,-x,y
z,-x,-y
-z,x,-y
y,z,x
y,-z,-x
-y,z,-x
-y,-z,x
-x,-y,-z
x,y,-z
-x,y,z
x,-y,z
-z,-x,-y
z,x,-y
-z,x,y
z,-x,y
-y,-z,-x
-y,z,x
y,-z,x
y,z,-x
x+1/2,y+1/2,z+1/2
-x+1/2,-y+1/2,z+1/2
x+1/2,-y+1/2,-z+1/2
-x+1/2,y+1/2,-z+1/2
z+1/2,x+1/2,y+1/2
-z+1/2,-x+1/2,y+1/2
z+1/2,-x+1/2,-y+1/2
-z+1/2,x+1/2,-y+1/2
y+1/2,z+1/2,x+1/2
y+1/2,-z+1/2,-x+1/2
-y+1/2,z+1/2,-x+1/2
-y+1/2,-z+1/2,x+1/2
-x+1/2,-y+1/2,-z+1/2
x+1/2,y+1/2,-z+1/2
-x+1/2,y+1/2,z+1/2
x+1/2,-y+1/2,z+1/2
-z+1/2,-x+1/2,-y+1/2
z+1/2,x+1/2,-y+1/2
-z+1/2,x+1/2,y+1/2
z+1/2,-x+1/2,y+1/2
-y+1/2,-z+1/2,-x+1/2
-y+1/2,z+1/2,x+1/2
y+1/2,-z+1/2,x+1/2
y+1/2,z+1/2,-x+1/2
loop_
_atom_site_label
_atom_site_type_symbol
_atom_site_fract_x
_atom_site_fract_y
_atom_site_fract_z
_atom_site_occupancy
_atom_site_U_iso_or_equiv
Ca1 Ca+2 0 0 0 1 0.0
O1 O-2 0.3033 0.1822 0 1 0.0
Mn1 Mn+4 0.25 0.25 0.25 1 0.0
Cu1 Cu+2 0 0.5 0.5 1 0.0
