#------------------------------------------------------------------------------
#$Date: 2016-02-13 21:28:24 +0200 (Sat, 13 Feb 2016) $
#$Revision: 176429 $
#$URL: svn://www.crystallography.net/cod/cif/1/52/70/1527043.cif $
#------------------------------------------------------------------------------
#
# This file is available in the Crystallography Open Database (COD),
# http://www.crystallography.net/
#
# All data on this site have been placed in the public domain by the
# contributors.
#
data_1527043
loop_
_publ_author_name
'Zhao, X.H.'
'Ruan, S.K.'
'Du, J.'
'Liu, M.L.'
'Jia, Y.Q.'
'Jin, M.Z.'
'Li, X.-L.'
'Song, Y.W.'
'Xiong, H.'
_publ_section_title
;
 Synthesis, crystal structure, Mossbauer spectrum, and magnetic
 susceptibility of new pyrochlore compound Ca Nd Fe1/2 Nb3/2 O7
;
_journal_name_full               'Journal of Solid State Chemistry'
_journal_page_first              483
_journal_page_last               487
_journal_volume                  154
_journal_year                    2000
_chemical_formula_sum            'Ca Fe0.5 Nb1.5 Nd O7'
_chemical_name_systematic        '(Ca Nd) (Fe0.5 Nb1.5) O7'
_space_group_IT_number           227
_symmetry_space_group_name_Hall  '-F 4vw 2vw 3'
_symmetry_space_group_name_H-M   'F d -3 m :2'
_cell_angle_alpha                90
_cell_angle_beta                 90
_cell_angle_gamma                90
_cell_formula_units_Z            8
_cell_length_a                   10.4138
_cell_length_b                   10.4138
_cell_length_c                   10.4138
_cell_volume                     1129.348
_citation_journal_id_ASTM        JSSCBI
_cod_data_source_file            Zhao_JSSCBI_2000_5.cif
_cod_data_source_block           Ca1Fe0.5Nb1.5Nd1O7
_cod_original_formula_sum        'Ca1 Fe0.5 Nb1.5 Nd1 O7'
_cod_database_code               1527043
loop_
_symmetry_equiv_pos_as_xyz
x,y,z
-y,x+1/4,z+1/4
-x+3/4,-y+1/4,z+1/2
y+3/4,-x,z+3/4
x,-y+1/4,-z+1/4
y+3/4,x+1/4,-z+1/2
-x+3/4,y,-z+3/4
-y,-x,-z
z,x,y
-x,z+1/4,y+1/4
-z+3/4,-x+1/4,y+1/2
x+3/4,-z,y+3/4
z,-x+1/4,-y+1/4
x+3/4,z+1/4,-y+1/2
-z+3/4,x,-y+3/4
-x,-z,-y
y,z,x
y+1/2,-z+3/4,-x+1/4
z+1/4,y+3/4,-x+1/2
-y+1/4,z+1/2,-x+3/4
-z,-y+1/2,-x+1/2
-y+1/4,-z+1/4,x
z+1/4,-y,x+1/4
-z+1/2,y+1/4,x+3/4
-x,-y,-z
y,-x-1/4,-z-1/4
x-3/4,y-1/4,-z-1/2
-y-3/4,x,-z-3/4
-x,y-1/4,z-1/4
-y-3/4,-x-1/4,z-1/2
x-3/4,-y,z-3/4
y,x,z
-z,-x,-y
x,-z-1/4,-y-1/4
z-3/4,x-1/4,-y-1/2
-x-3/4,z,-y-3/4
-z,x-1/4,y-1/4
-x-3/4,-z-1/4,y-1/2
z-3/4,-x,y-3/4
x,z,y
-y,-z,-x
-y-1/2,z-3/4,x-1/4
-z-1/4,-y-3/4,x-1/2
y-1/4,-z-1/2,x-3/4
z,y-1/2,x-1/2
y-1/4,z-1/4,-x
-z-1/4,y,-x-1/4
z-1/2,-y-1/4,-x-3/4
x,y+1/2,z+1/2
-y,x+3/4,z+3/4
-x+3/4,-y+3/4,z+1
y+3/4,-x+1/2,z+5/4
x,-y+3/4,-z+3/4
y+3/4,x+3/4,-z+1
-x+3/4,y+1/2,-z+5/4
-y,-x+1/2,-z+1/2
z,x+1/2,y+1/2
-x,z+3/4,y+3/4
-z+3/4,-x+3/4,y+1
x+3/4,-z+1/2,y+5/4
z,-x+3/4,-y+3/4
x+3/4,z+3/4,-y+1
-z+3/4,x+1/2,-y+5/4
-x,-z+1/2,-y+1/2
y,z+1/2,x+1/2
y+1/2,-z+5/4,-x+3/4
z+1/4,y+5/4,-x+1
-y+1/4,z+1,-x+5/4
-z,-y+1,-x+1
-y+1/4,-z+3/4,x+1/2
z+1/4,-y+1/2,x+3/4
-z+1/2,y+3/4,x+5/4
-x,-y+1/2,-z+1/2
y,-x+1/4,-z+1/4
x-3/4,y+1/4,-z
-y-3/4,x+1/2,-z-1/4
-x,y+1/4,z+1/4
-y-3/4,-x+1/4,z
x-3/4,-y+1/2,z-1/4
y,x+1/2,z+1/2
-z,-x+1/2,-y+1/2
x,-z+1/4,-y+1/4
z-3/4,x+1/4,-y
-x-3/4,z+1/2,-y-1/4
-z,x+1/4,y+1/4
-x-3/4,-z+1/4,y
z-3/4,-x+1/2,y-1/4
x,z+1/2,y+1/2
-y,-z+1/2,-x+1/2
-y-1/2,z-1/4,x+1/4
-z-1/4,-y-1/4,x
y-1/4,-z,x-1/4
z,y,x
y-1/4,z+1/4,-x+1/2
-z-1/4,y+1/2,-x+1/4
z-1/2,-y+1/4,-x-1/4
x+1/2,y,z+1/2
-y+1/2,x+1/4,z+3/4
-x+5/4,-y+1/4,z+1
y+5/4,-x,z+5/4
x+1/2,-y+1/4,-z+3/4
y+5/4,x+1/4,-z+1
-x+5/4,y,-z+5/4
-y+1/2,-x,-z+1/2
z+1/2,x,y+1/2
-x+1/2,z+1/4,y+3/4
-z+5/4,-x+1/4,y+1
x+5/4,-z,y+5/4
z+1/2,-x+1/4,-y+3/4
x+5/4,z+1/4,-y+1
-z+5/4,x,-y+5/4
-x+1/2,-z,-y+1/2
y+1/2,z,x+1/2
y+1,-z+3/4,-x+3/4
z+3/4,y+3/4,-x+1
-y+3/4,z+1/2,-x+5/4
-z+1/2,-y+1/2,-x+1
-y+3/4,-z+1/4,x+1/2
z+3/4,-y,x+3/4
-z+1,y+1/4,x+5/4
-x+1/2,-y,-z+1/2
y+1/2,-x-1/4,-z+1/4
x-1/4,y-1/4,-z
-y-1/4,x,-z-1/4
-x+1/2,y-1/4,z+1/4
-y-1/4,-x-1/4,z
x-1/4,-y,z-1/4
y+1/2,x,z+1/2
-z+1/2,-x,-y+1/2
x+1/2,-z-1/4,-y+1/4
z-1/4,x-1/4,-y
-x-1/4,z,-y-1/4
-z+1/2,x-1/4,y+1/4
-x-1/4,-z-1/4,y
z-1/4,-x,y-1/4
x+1/2,z,y+1/2
-y+1/2,-z,-x+1/2
-y,z-3/4,x+1/4
-z+1/4,-y-3/4,x
y+1/4,-z-1/2,x-1/4
z+1/2,y-1/2,x
y+1/4,z-1/4,-x+1/2
-z+1/4,y,-x+1/4
z,-y-1/4,-x-1/4
x+1/2,y+1/2,z
-y+1/2,x+3/4,z+1/4
-x+5/4,-y+3/4,z+1/2
y+5/4,-x+1/2,z+3/4
x+1/2,-y+3/4,-z+1/4
y+5/4,x+3/4,-z+1/2
-x+5/4,y+1/2,-z+3/4
-y+1/2,-x+1/2,-z
z+1/2,x+1/2,y
-x+1/2,z+3/4,y+1/4
-z+5/4,-x+3/4,y+1/2
x+5/4,-z+1/2,y+3/4
z+1/2,-x+3/4,-y+1/4
x+5/4,z+3/4,-y+1/2
-z+5/4,x+1/2,-y+3/4
-x+1/2,-z+1/2,-y
y+1/2,z+1/2,x
y+1,-z+5/4,-x+1/4
z+3/4,y+5/4,-x+1/2
-y+3/4,z+1,-x+3/4
-z+1/2,-y+1,-x+1/2
-y+3/4,-z+3/4,x
z+3/4,-y+1/2,x+1/4
-z+1,y+3/4,x+3/4
-x+1/2,-y+1/2,-z
y+1/2,-x+1/4,-z-1/4
x-1/4,y+1/4,-z-1/2
-y-1/4,x+1/2,-z-3/4
-x+1/2,y+1/4,z-1/4
-y-1/4,-x+1/4,z-1/2
x-1/4,-y+1/2,z-3/4
y+1/2,x+1/2,z
-z+1/2,-x+1/2,-y
x+1/2,-z+1/4,-y-1/4
z-1/4,x+1/4,-y-1/2
-x-1/4,z+1/2,-y-3/4
-z+1/2,x+1/4,y-1/4
-x-1/4,-z+1/4,y-1/2
z-1/4,-x+1/2,y-3/4
x+1/2,z+1/2,y
-y+1/2,-z+1/2,-x
-y,z-1/4,x-1/4
-z+1/4,-y-1/4,x-1/2
y+1/4,-z,x-3/4
z+1/2,y,x-1/2
y+1/4,z+1/4,-x
-z+1/4,y+1/2,-x-1/4
z,-y+1/4,-x-3/4
loop_
_atom_site_label
_atom_site_type_symbol
_atom_site_fract_x
_atom_site_fract_y
_atom_site_fract_z
_atom_site_occupancy
_atom_site_U_iso_or_equiv
O1 O-2 0.3228 0.125 0.125 1 0.0
Nd1 Nd+3 0.5 0.5 0.5 0.5 0.0
Nb1 Nb+5 0 0 0 0.75 0.0
Fe1 Fe+3 0 0 0 0.25 0.0
O2 O-2 0.375 0.375 0.375 1 0.0
Ca1 Ca+2 0.5 0.5 0.5 0.5 0.0
