#------------------------------------------------------------------------------
#$Date: 2016-02-13 21:28:24 +0200 (Sat, 13 Feb 2016) $
#$Revision: 176429 $
#$URL: svn://www.crystallography.net/cod/cif/1/52/72/1527205.cif $
#------------------------------------------------------------------------------
#
# This file is available in the Crystallography Open Database (COD),
# http://www.crystallography.net/
#
# All data on this site have been placed in the public domain by the
# contributors.
#
data_1527205
loop_
_publ_author_name
'Bylichkina, T.I.'
'Soleva, L.I.'
'Pobedimskaya, E.A.'
'Porai-Koshits, M.A.'
'Belov, N.V.'
_publ_section_title
;
 Crystal structures of Ba-molybdate and Ba-tungstate
;
_journal_name_full               Kristallografiya
_journal_page_first              165
_journal_page_last               167
_journal_volume                  15
_journal_year                    1970
_chemical_formula_sum            'Ba Mo O4'
_chemical_name_systematic        'Ba (Mo O4)'
_space_group_IT_number           88
_symmetry_space_group_name_Hall  '-I 4ad'
_symmetry_space_group_name_H-M   'I 41/a :2'
_cell_angle_alpha                90
_cell_angle_beta                 90
_cell_angle_gamma                90
_cell_formula_units_Z            4
_cell_length_a                   5.62
_cell_length_b                   5.62
_cell_length_c                   12.82
_cell_volume                     404.912
_citation_journal_id_ASTM        KRISAJ
_cod_data_source_file            Bylichkina_KRISAJ_1970_1885.cif
_cod_data_source_block           Ba1Mo1O4
_cod_original_formula_sum        'Ba1 Mo1 O4'
_cod_database_code               1527205
loop_
_symmetry_equiv_pos_as_xyz
x,y,z
-y+3/4,x+1/4,z+1/4
-x+1/2,-y,z+1/2
y+3/4,-x+3/4,z+3/4
-x,-y,-z
y-3/4,-x-1/4,-z-1/4
x-1/2,y,-z-1/2
-y-3/4,x-3/4,-z-3/4
x+1/2,y+1/2,z+1/2
-y+5/4,x+3/4,z+3/4
-x+1,-y+1/2,z+1
y+5/4,-x+5/4,z+5/4
-x+1/2,-y+1/2,-z+1/2
y-1/4,-x+1/4,-z+1/4
x,y+1/2,-z
-y-1/4,x-1/4,-z-1/4
loop_
_atom_site_label
_atom_site_type_symbol
_atom_site_fract_x
_atom_site_fract_y
_atom_site_fract_z
_atom_site_occupancy
_atom_site_U_iso_or_equiv
O1 O-2 0.143 0.143 0.219 0.5 0.0
Ba1 Ba+2 0 0.75 0.375 1 0.0
O2 O-2 0.234 0.234 0.051 0.5 0.0
Mo1 Mo+6 0 0.25 0.125 1 0.0
