#------------------------------------------------------------------------------
#$Date: 2015-07-13 06:46:07 +0300 (Mon, 13 Jul 2015) $
#$Revision: 149827 $
#$URL: svn://www.crystallography.net/cod/cif/1/52/79/1527992.cif $
#------------------------------------------------------------------------------
#
# This file is available in the Crystallography Open Database (COD),
# http://www.crystallography.net/
#
# All data on this site have been placed in the public domain by the
# contributors.
#
data_1527992
loop_
_publ_author_name
'Rice, C.E.'
'Robinson, W.R.'
_publ_section_title
;
 Structural changes in the solid solution (Ti1-x Vx)2 O3 as x varies from
 zero to one
;
_journal_name_full               'Journal of Solid State Chemistry'
_journal_page_first              145
_journal_page_last               154
_journal_volume                  21
_journal_year                    1977
_chemical_formula_sum            'O3 Ti0.6 V1.4'
_chemical_name_systematic        '(Ti0.3 V0.7)2 O3'
_space_group_IT_number           167
_symmetry_space_group_name_Hall  '-R 3 2"c'
_symmetry_space_group_name_H-M   'R -3 c :H'
_cell_angle_alpha                90
_cell_angle_beta                 90
_cell_angle_gamma                120
_cell_formula_units_Z            6
_cell_length_a                   4.9968
_cell_length_b                   4.9968
_cell_length_c                   13.996
_cell_volume                     302.635
_citation_journal_id_ASTM        JSSCBI
_cod_data_source_file            Rice_JSSCBI_1977_1150.cif
_cod_data_source_block           O3Ti0.6V1.4
_cod_original_cell_volume        302.6346
_cod_database_code               1527992
loop_
_symmetry_equiv_pos_as_xyz
x,y,z
-y,x-y,z
-x+y,-x,z
y,x,-z+1/2
-x,-x+y,-z+1/2
x-y,-y,-z+1/2
-x,-y,-z
y,-x+y,-z
x-y,x,-z
-y,-x,z-1/2
x,x-y,z-1/2
-x+y,y,z-1/2
x+2/3,y+1/3,z+1/3
-y+2/3,x-y+1/3,z+1/3
-x+y+2/3,-x+1/3,z+1/3
y+2/3,x+1/3,-z+5/6
-x+2/3,-x+y+1/3,-z+5/6
x-y+2/3,-y+1/3,-z+5/6
-x+2/3,-y+1/3,-z+1/3
y+2/3,-x+y+1/3,-z+1/3
x-y+2/3,x+1/3,-z+1/3
-y+2/3,-x+1/3,z-1/6
x+2/3,x-y+1/3,z-1/6
-x+y+2/3,y+1/3,z-1/6
x+1/3,y+2/3,z+2/3
-y+1/3,x-y+2/3,z+2/3
-x+y+1/3,-x+2/3,z+2/3
y+1/3,x+2/3,-z+7/6
-x+1/3,-x+y+2/3,-z+7/6
x-y+1/3,-y+2/3,-z+7/6
-x+1/3,-y+2/3,-z+2/3
y+1/3,-x+y+2/3,-z+2/3
x-y+1/3,x+2/3,-z+2/3
-y+1/3,-x+2/3,z+1/6
x+1/3,x-y+2/3,z+1/6
-x+y+1/3,y+2/3,z+1/6
loop_
_atom_site_label
_atom_site_type_symbol
_atom_site_fract_x
_atom_site_fract_y
_atom_site_fract_z
_atom_site_occupancy
_atom_site_U_iso_or_equiv
Ti1 Ti+3 0 0 0.34682 0.3 0.0
O1 O-2 0.3114 0 0.25 1 0.0
V1 V+3 0 0 0.34682 0.7 0.0
