#------------------------------------------------------------------------------
#$Date: 2018-09-27 07:13:35 +0300 (Thu, 27 Sep 2018) $
#$Revision: 211196 $
#$URL: file:///home/coder/svn-repositories/cod/cif/1/52/75/1527507.cif $
#------------------------------------------------------------------------------
#
# This file is available in the Crystallography Open Database (COD),
# http://www.crystallography.net/
#
# All data on this site have been placed in the public domain by the
# contributors.
#
data_1527507
loop_
_publ_author_name
'Hestermann, K.'
'Hoppe, R.'
_publ_section_title
;
 Die Kristallstruktur von K Cu O2, Rb Cu O2 und Cs Cu O2
;
_journal_name_full
'Zeitschrift fuer Anorganische und Allgemeine Chemie'
_journal_page_first              249
_journal_page_last               260
_journal_volume                  367
_journal_year                    1969
_chemical_formula_sum            'Cs Cu O2'
_space_group_IT_number           63
_symmetry_space_group_name_Hall  '-C 2c 2'
_symmetry_space_group_name_H-M   'C m c m'
_cell_angle_alpha                90
_cell_angle_beta                 90
_cell_angle_gamma                90
_cell_formula_units_Z            4
_cell_length_a                   5.22
_cell_length_b                   12.19
_cell_length_c                   5.43
_cell_volume                     345.521
_citation_journal_id_ASTM        ZAACAB
_cod_data_source_file            Hestermann_ZAACAB_1969_1239.cif
_cod_data_source_block           Cs1Cu1O2
_cod_original_cell_volume        345.5206
_cod_original_formula_sum        'Cs1 Cu1 O2'
_cod_database_code               1527507
loop_
_symmetry_equiv_pos_as_xyz
x,y,z
-x,-y,z+1/2
x,-y,-z
-x,y,-z+1/2
-x,-y,-z
x,y,-z-1/2
-x,y,z
x,-y,z-1/2
x+1/2,y+1/2,z
-x+1/2,-y+1/2,z+1/2
x+1/2,-y+1/2,-z
-x+1/2,y+1/2,-z+1/2
-x+1/2,-y+1/2,-z
x+1/2,y+1/2,-z-1/2
-x+1/2,y+1/2,z
x+1/2,-y+1/2,z-1/2
loop_
_atom_site_label
_atom_site_type_symbol
_atom_site_fract_x
_atom_site_fract_y
_atom_site_fract_z
_atom_site_occupancy
_atom_site_U_iso_or_equiv
Cu1 Cu+3 0 0 0.25 1 0.0
O1 O-2 0 0.103 0 1 0.0
Cs1 Cs+1 0 0.319 0.25 1 0.0
