#------------------------------------------------------------------------------
#$Date: 2016-02-13 21:28:24 +0200 (Sat, 13 Feb 2016) $
#$Revision: 176429 $
#$URL: svn://www.crystallography.net/cod/cif/1/52/77/1527704.cif $
#------------------------------------------------------------------------------
#
# This file is available in the Crystallography Open Database (COD),
# http://www.crystallography.net/
#
# All data on this site have been placed in the public domain by the
# contributors.
#
data_1527704
loop_
_publ_author_name
'Kuroda, K.'
'Mizutani, N.'
'Ishizawa, N.'
'Kato, M.'
_publ_section_title
;
 The crystal structure of alpha-Sr Mn O3
;
_journal_name_full               'Journal of Solid State Chemistry'
_journal_page_first              297
_journal_page_last               299
_journal_volume                  38
_journal_year                    1981
_chemical_formula_sum            'Mn O3 Sr'
_chemical_name_systematic        'Sr Mn O3'
_space_group_IT_number           194
_symmetry_space_group_name_Hall  '-P 6c 2c'
_symmetry_space_group_name_H-M   'P 63/m m c'
_cell_angle_alpha                90
_cell_angle_beta                 90
_cell_angle_gamma                120
_cell_formula_units_Z            4
_cell_length_a                   5.454
_cell_length_b                   5.454
_cell_length_c                   9.092
_cell_volume                     234.218
_citation_journal_id_ASTM        JSSCBI
_cod_data_source_file            Kuroda_JSSCBI_1981_1497.cif
_cod_data_source_block           Mn1O3Sr1
_cod_original_formula_sum        'Mn1 O3 Sr1'
_cod_database_code               1527704
loop_
_symmetry_equiv_pos_as_xyz
x,y,z
x-y,x,z+1/2
-y,x-y,z
-x,-y,z+1/2
-x+y,-x,z
y,-x+y,z+1/2
-y,-x,-z+1/2
x-y,-y,-z
x,x-y,-z+1/2
y,x,-z
-x+y,y,-z+1/2
-x,-x+y,-z
-x,-y,-z
-x+y,-x,-z-1/2
y,-x+y,-z
x,y,-z-1/2
x-y,x,-z
-y,x-y,-z-1/2
y,x,z-1/2
-x+y,y,z
-x,-x+y,z-1/2
-y,-x,z
x-y,-y,z-1/2
x,x-y,z
loop_
_atom_site_label
_atom_site_type_symbol
_atom_site_fract_x
_atom_site_fract_y
_atom_site_fract_z
_atom_site_occupancy
_atom_site_U_iso_or_equiv
Sr1 Sr+2 0 0 0.012 0.5 0.0
Mn1 Mn+4 0.3333 0.6667 0.6127 1 0.0
O1 O-2 0.5 0 0 1 0.0
Sr2 Sr+2 0.3333 0.6667 0.25 1 0.0
O2 O-2 -0.8179 0.8179 0.75 1 0.0
