#------------------------------------------------------------------------------
#$Date: 2016-02-13 21:28:24 +0200 (Sat, 13 Feb 2016) $
#$Revision: 176429 $
#$URL: svn://www.crystallography.net/cod/cif/1/52/84/1528423.cif $
#------------------------------------------------------------------------------
#
# This file is available in the Crystallography Open Database (COD),
# http://www.crystallography.net/
#
# All data on this site have been placed in the public domain by the
# contributors.
#
data_1528423
loop_
_publ_author_name
'Dabrowski, B.'
'Kolesnik, S.'
'Caspi, E.N.'
'Jorgensen, J.D.'
'Chmaissem, O.'
'Mais, J.'
_publ_section_title
;
 Synthesis, structure, and magnetic properties of Sr Mn(1-x) Ga(x)
 O(3-delta) (x = 0-0.5) perovskites
;
_journal_name_full               'Journal of Solid State Chemistry'
_journal_page_first              3453
_journal_page_last               3460
_journal_volume                  178
_journal_year                    2005
_chemical_formula_sum            'Ga0.26 Mn0.74 O2.83 Sr'
_chemical_name_systematic        'Sr Mn0.74 Ga0.26 O2.83'
_space_group_IT_number           221
_symmetry_space_group_name_Hall  '-P 4 2 3'
_symmetry_space_group_name_H-M   'P m -3 m'
_cell_angle_alpha                90
_cell_angle_beta                 90
_cell_angle_gamma                90
_cell_formula_units_Z            1
_cell_length_a                   3.834005
_cell_length_b                   3.834005
_cell_length_c                   3.834005
_cell_volume                     56.358
_citation_journal_id_ASTM        JSSCBI
_cod_data_source_file            Dabrowski_JSSCBI_2005_742.cif
_cod_data_source_block           Ga0.26Mn0.74O2.83Sr1
_cod_original_cell_volume        56.35832
_cod_original_formula_sum        'Ga0.26 Mn0.74 O2.83 Sr1'
_cod_database_code               1528423
loop_
_symmetry_equiv_pos_as_xyz
x,y,z
-y,x,z
-x,-y,z
y,-x,z
x,-y,-z
y,x,-z
-x,y,-z
-y,-x,-z
z,x,y
-x,z,y
-z,-x,y
x,-z,y
z,-x,-y
x,z,-y
-z,x,-y
-x,-z,-y
y,z,x
y,-z,-x
z,y,-x
-y,z,-x
-z,-y,-x
-y,-z,x
z,-y,x
-z,y,x
-x,-y,-z
y,-x,-z
x,y,-z
-y,x,-z
-x,y,z
-y,-x,z
x,-y,z
y,x,z
-z,-x,-y
x,-z,-y
z,x,-y
-x,z,-y
-z,x,y
-x,-z,y
z,-x,y
x,z,y
-y,-z,-x
-y,z,x
-z,-y,x
y,-z,x
z,y,x
y,z,-x
-z,y,-x
z,-y,-x
loop_
_atom_site_label
_atom_site_type_symbol
_atom_site_fract_x
_atom_site_fract_y
_atom_site_fract_z
_atom_site_occupancy
_atom_site_U_iso_or_equiv
Sr1 Sr+2 0.5 0.5 0.5 1 0.0
Ga1 Ga+3 0 0 0 0.2645 0.0
Mn1 Mn+3 0 0 0 0.7355 0.0
O1 O-2 0.5 0 0 0.943 0.0
