#------------------------------------------------------------------------------
#$Date: 2016-02-13 21:28:24 +0200 (Sat, 13 Feb 2016) $
#$Revision: 176429 $
#$URL: svn://www.crystallography.net/cod/cif/1/52/85/1528558.cif $
#------------------------------------------------------------------------------
#
# This file is available in the Crystallography Open Database (COD),
# http://www.crystallography.net/
#
# All data on this site have been placed in the public domain by the
# contributors.
#
data_1528558
loop_
_publ_author_name
'Hansen, T.J.'
'Macquart, R.B.'
'Smith, M.D.'
'zur Loye, H.C.'
_publ_section_title
;
 Crystal growth and structures of three new platinates: Ln3 Na Pt O7 (Ln =
 La, Nd) and La4 Pt O7
;
_journal_name_full               'Solid State Sciences'
_journal_page_first              785
_journal_page_last               791
_journal_volume                  9
_journal_year                    2007
_chemical_formula_sum            'La3 Na O7 Pt'
_chemical_name_systematic        '(La3 Na) Pt O7'
_space_group_IT_number           167
_symmetry_space_group_name_Hall  '-R 3 2"c'
_symmetry_space_group_name_H-M   'R -3 c :H'
_cell_angle_alpha                90
_cell_angle_beta                 90
_cell_angle_gamma                120
_cell_formula_units_Z            6
_cell_length_a                   5.7458
_cell_length_b                   5.7458
_cell_length_c                   35.6496
_cell_volume                     1019.263
_citation_journal_id_ASTM        SSSCFJ
_cod_data_source_file            Hansen_SSSCFJ_2007_1403.cif
_cod_data_source_block           La3Na1O7Pt1
_cod_original_formula_sum        'La3 Na1 O7 Pt1'
_cod_database_code               1528558
loop_
_symmetry_equiv_pos_as_xyz
x,y,z
-y,x-y,z
-x+y,-x,z
y,x,-z+1/2
-x,-x+y,-z+1/2
x-y,-y,-z+1/2
-x,-y,-z
y,-x+y,-z
x-y,x,-z
-y,-x,z-1/2
x,x-y,z-1/2
-x+y,y,z-1/2
x+2/3,y+1/3,z+1/3
-y+2/3,x-y+1/3,z+1/3
-x+y+2/3,-x+1/3,z+1/3
y+2/3,x+1/3,-z+5/6
-x+2/3,-x+y+1/3,-z+5/6
x-y+2/3,-y+1/3,-z+5/6
-x+2/3,-y+1/3,-z+1/3
y+2/3,-x+y+1/3,-z+1/3
x-y+2/3,x+1/3,-z+1/3
-y+2/3,-x+1/3,z-1/6
x+2/3,x-y+1/3,z-1/6
-x+y+2/3,y+1/3,z-1/6
x+1/3,y+2/3,z+2/3
-y+1/3,x-y+2/3,z+2/3
-x+y+1/3,-x+2/3,z+2/3
y+1/3,x+2/3,-z+7/6
-x+1/3,-x+y+2/3,-z+7/6
x-y+1/3,-y+2/3,-z+7/6
-x+1/3,-y+2/3,-z+2/3
y+1/3,-x+y+2/3,-z+2/3
x-y+1/3,x+2/3,-z+2/3
-y+1/3,-x+2/3,z+1/6
x+1/3,x-y+2/3,z+1/6
-x+y+1/3,y+2/3,z+1/6
loop_
_atom_site_label
_atom_site_type_symbol
_atom_site_fract_x
_atom_site_fract_y
_atom_site_fract_z
_atom_site_occupancy
_atom_site_U_iso_or_equiv
Pt1 Pt+4 0 0 0 1 0.0
La2 La+3 0 0 0.0858 0.5 0.0
O1 O-2 0.2255 0.3287 0.0319 1 0.0
O2 O-2 0.144 0.144 0.25 0.27 0.0
O3 O-2 0.186 0 0.25 0.06 0.0
La1 La+3 0 0 0.189 1 0.0
Na1 Na+1 0 0 0.0858 0.5 0.0
