#------------------------------------------------------------------------------
#$Date: 2015-07-14 01:38:03 +0300 (Tue, 14 Jul 2015) $
#$Revision: 151352 $
#$URL: svn://www.crystallography.net/cod/cif/1/52/87/1528735.cif $
#------------------------------------------------------------------------------
#
# This file is available in the Crystallography Open Database (COD),
# http://www.crystallography.net/
#
# All data on this site have been placed in the public domain by the
# contributors.
#
data_1528735
loop_
_publ_author_name
'Mikhailov, M.A.'
'Rozhdestvenskaya, I.V.'
'Demina, T.V.'
'Bannova, I.I.'
'Matveeva, L.M.'
_publ_section_title
;
 Structural features and isomorphous substitutions in chromium- and
 magnesium-containing beryls and chromium-containing beryllian indialite
 grown by the flux method
;
_journal_name_full               Kristallografiya
_journal_page_first              231
_journal_page_last               238
_journal_volume                  54
_journal_year                    2009
_chemical_formula_sum            'Al1.48 Be2.7 Cr0.52 Mg0.3 O18 Si6'
_chemical_name_systematic
'(Al1.18 Cr0.52 Mg0.3) (Be2.70 Al0.30) Si6 O18'
_space_group_IT_number           192
_symmetry_space_group_name_Hall  '-P 6 2c'
_symmetry_space_group_name_H-M   'P 6/m c c'
_cell_angle_alpha                90
_cell_angle_beta                 90
_cell_angle_gamma                120
_cell_formula_units_Z            2
_cell_length_a                   9.28
_cell_length_b                   9.28
_cell_length_c                   9.198
_cell_volume                     685.993
_citation_journal_id_ASTM        KRISAJ
_cod_data_source_file            Mikhailov_KRISAJ_2009_1713.cif
_cod_data_source_block           Al1.48Be2.7Cr0.52Mg0.3O18Si6
_cod_original_cell_volume        685.9935
_cod_database_code               1528735
loop_
_symmetry_equiv_pos_as_xyz
x,y,z
x-y,x,z
-y,x-y,z
-x,-y,z
-x+y,-x,z
y,-x+y,z
-y,-x,-z+1/2
x-y,-y,-z+1/2
x,x-y,-z+1/2
y,x,-z+1/2
-x+y,y,-z+1/2
-x,-x+y,-z+1/2
-x,-y,-z
-x+y,-x,-z
y,-x+y,-z
x,y,-z
x-y,x,-z
-y,x-y,-z
y,x,z-1/2
-x+y,y,z-1/2
-x,-x+y,z-1/2
-y,-x,z-1/2
x-y,-y,z-1/2
x,x-y,z-1/2
loop_
_atom_site_label
_atom_site_type_symbol
_atom_site_fract_x
_atom_site_fract_y
_atom_site_fract_z
_atom_site_occupancy
_atom_site_U_iso_or_equiv
Be1 Be+2 0.5 0 0.25 0.9 0.0
Cr1 Cr+3 0.3333 0.6667 0.25 0.26 0.0
Al2 Al+3 0.5 0 0.25 0.1 0.0
O2 O-2 0.4954 0.1439 0.145 1 0.0
Al1 Al+3 0.3333 0.6667 0.25 0.59 0.0
Mg1 Mg+2 0.3333 0.6667 0.25 0.15 0.0
Si1 Si+4 0.3847 0.1145 0 1 0.0
O1 O-2 0.3103 0.2362 0 1 0.0
