#------------------------------------------------------------------------------
#$Date: 2016-02-13 21:28:24 +0200 (Sat, 13 Feb 2016) $
#$Revision: 176429 $
#$URL: svn://www.crystallography.net/cod/cif/1/52/86/1528663.cif $
#------------------------------------------------------------------------------
#
# This file is available in the Crystallography Open Database (COD),
# http://www.crystallography.net/
#
# All data on this site have been placed in the public domain by the
# contributors.
#
data_1528663
loop_
_publ_author_name
'de la Calle, C.'
'Aguadero, A.'
'Alonso, J.A.'
'Fernandez-Diaz, M.T.'
_publ_section_title
;
 Correlation between reconstructive phase transitions and transport
 properties from Sr Co O2.5 brownmillerite: A neutron diffraction study
;
_journal_name_full               'Solid State Sciences'
_journal_page_first              1924
_journal_page_last               1935
_journal_volume                  10
_journal_year                    2008
_chemical_formula_sum            'Co O2.48 Sr'
_chemical_name_systematic        'Sr Co O2.48'
_space_group_IT_number           221
_symmetry_space_group_name_Hall  '-P 4 2 3'
_symmetry_space_group_name_H-M   'P m -3 m'
_cell_angle_alpha                90
_cell_angle_beta                 90
_cell_angle_gamma                90
_cell_formula_units_Z            1
_cell_length_a                   3.95286
_cell_length_b                   3.95286
_cell_length_c                   3.95286
_cell_volume                     61.764
_citation_journal_id_ASTM        SSSCFJ
_cod_data_source_file            delaCalle_SSSCFJ_2008_1639.cif
_cod_data_source_block           Co1O2.48Sr1
_cod_original_cell_volume        61.76385
_cod_original_formula_sum        'Co1 O2.48 Sr1'
_cod_database_code               1528663
loop_
_symmetry_equiv_pos_as_xyz
x,y,z
-y,x,z
-x,-y,z
y,-x,z
x,-y,-z
y,x,-z
-x,y,-z
-y,-x,-z
z,x,y
-x,z,y
-z,-x,y
x,-z,y
z,-x,-y
x,z,-y
-z,x,-y
-x,-z,-y
y,z,x
y,-z,-x
z,y,-x
-y,z,-x
-z,-y,-x
-y,-z,x
z,-y,x
-z,y,x
-x,-y,-z
y,-x,-z
x,y,-z
-y,x,-z
-x,y,z
-y,-x,z
x,-y,z
y,x,z
-z,-x,-y
x,-z,-y
z,x,-y
-x,z,-y
-z,x,y
-x,-z,y
z,-x,y
x,z,y
-y,-z,-x
-y,z,x
-z,-y,x
y,-z,x
z,y,x
y,z,-x
-z,y,-x
z,-y,-x
loop_
_atom_site_label
_atom_site_type_symbol
_atom_site_fract_x
_atom_site_fract_y
_atom_site_fract_z
_atom_site_occupancy
_atom_site_U_iso_or_equiv
Co1 Co+3 0 0 0 1 0.0
O1 O-2 0 0.5 0.5 0.827 0.0
Sr1 Sr+2 0.5 0.5 0.5 1 0.0
