#------------------------------------------------------------------------------
#$Date: 2016-02-13 21:28:24 +0200 (Sat, 13 Feb 2016) $
#$Revision: 176429 $
#$URL: svn://www.crystallography.net/cod/cif/1/52/83/1528346.cif $
#------------------------------------------------------------------------------
#
# This file is available in the Crystallography Open Database (COD),
# http://www.crystallography.net/
#
# All data on this site have been placed in the public domain by the
# contributors.
#
data_1528346
loop_
_publ_author_name
'Belik, A.A.'
'Takayama-Muromachi, E.'
_publ_section_title
;
 High-pressure synthesis, crystal structures, and characterization of Cd V
 O(3-delta) and solid solutions Cd V O3 - Na V O3
;
_journal_name_full               'Journal of Solid State Chemistry'
_journal_page_first              1650
_journal_page_last               1658
_journal_volume                  179
_journal_year                    2006
_chemical_formula_sum            'Cd O3 V'
_chemical_name_systematic        'Cd V O3'
_space_group_IT_number           62
_symmetry_space_group_name_Hall  '-P 2ac 2n'
_symmetry_space_group_name_H-M   'P n m a'
_cell_angle_alpha                90
_cell_angle_beta                 90
_cell_angle_gamma                90
_cell_formula_units_Z            4
_cell_length_a                   5.33435
_cell_length_b                   7.5232
_cell_length_c                   5.26394
_cell_volume                     211.249
_citation_journal_id_ASTM        JSSCBI
_cod_data_source_file            Belik_JSSCBI_2006_1155.cif
_cod_data_source_block           Cd1O3V1
_cod_original_cell_volume        211.2492
_cod_original_formula_sum        'Cd1 O3 V1'
_cod_database_code               1528346
loop_
_symmetry_equiv_pos_as_xyz
x,y,z
-x+1/2,-y,z+1/2
x+1/2,-y+1/2,-z+1/2
-x,y+1/2,-z
-x,-y,-z
x-1/2,y,-z-1/2
-x-1/2,y-1/2,z-1/2
x,-y-1/2,z
loop_
_atom_site_label
_atom_site_type_symbol
_atom_site_fract_x
_atom_site_fract_y
_atom_site_fract_z
_atom_site_occupancy
_atom_site_U_iso_or_equiv
O1 O-2 0.476 0.25 0.088 1 0.0
V1 V+4 0 0 0.5 1 0.0
O2 O-2 0.2884 0.0439 0.7075 1 0.0
Cd1 Cd+2 0.0354 0.25 -0.0072 1 0.0
