#------------------------------------------------------------------------------
#$Date: 2018-09-27 07:13:35 +0300 (Thu, 27 Sep 2018) $
#$Revision: 211196 $
#$URL: file:///home/coder/svn-repositories/cod/cif/1/52/87/1528781.cif $
#------------------------------------------------------------------------------
#
# This file is available in the Crystallography Open Database (COD),
# http://www.crystallography.net/
#
# All data on this site have been placed in the public domain by the
# contributors.
#
data_1528781
loop_
_publ_author_name
'Packer, R.J.'
'Skinner, S.J.'
'Stuart, P.A.'
_publ_section_title
;
 Structural characterisation of the Ce(1-x) La(x) Nb O(4+delta) solid
 solutions series: in-situ high-temperature powder diffraction studies
;
_journal_name_full               'Journal of Solid State Chemistry'
_journal_page_first              1445
_journal_page_last               1455
_journal_volume                  181
_journal_year                    2008
_chemical_formula_sum            'Ce0.77 La0.23 Nb O3.82'
_space_group_IT_number           15
_symmetry_space_group_name_Hall  '-I 2ya'
_symmetry_space_group_name_H-M   'I 1 2/a 1'
_cell_angle_alpha                90
_cell_angle_beta                 94.396
_cell_angle_gamma                90
_cell_formula_units_Z            4
_cell_length_a                   5.5403
_cell_length_b                   11.4354
_cell_length_c                   5.1744
_cell_volume                     326.863
_citation_journal_id_ASTM        JSSCBI
_cod_data_source_file            Packer_JSSCBI_2008_1536.cif
_cod_data_source_block           Ce0.77La0.23Nb1O3.82
_cod_original_cell_volume        326.8625
_cod_original_sg_symbol_Hall     '-C 2yc (x+z,y,-x)'
_cod_original_formula_sum        'Ce0.77 La0.23 Nb1 O3.82'
_cod_database_code               1528781
loop_
_symmetry_equiv_pos_as_xyz
x,y,z
-x+1/2,y,-z
-x,-y,-z
x-1/2,-y,z
x+1/2,y+1/2,z+1/2
-x+1,y+1/2,-z+1/2
-x+1/2,-y+1/2,-z+1/2
x,-y+1/2,z+1/2
loop_
_atom_site_label
_atom_site_type_symbol
_atom_site_fract_x
_atom_site_fract_y
_atom_site_fract_z
_atom_site_occupancy
_atom_site_U_iso_or_equiv
La1 La+3 0.25 0.1199 0 0.23 0.0
Nb1 Nb+4 0.25 0.6464 0 1 0.0
Ce1 Ce+3 0.25 0.1197 0 0.77 0.0
O2 O-2 0.8947 0.454 0.2371 0.99 0.0
O1 O-2 0.0088 0.7192 0.1985 0.92 0.0
