#------------------------------------------------------------------------------
#$Date: 2016-02-13 21:28:24 +0200 (Sat, 13 Feb 2016) $
#$Revision: 176429 $
#$URL: svn://www.crystallography.net/cod/cif/1/52/89/1528913.cif $
#------------------------------------------------------------------------------
#
# This file is available in the Crystallography Open Database (COD),
# http://www.crystallography.net/
#
# All data on this site have been placed in the public domain by the
# contributors.
#
data_1528913
loop_
_publ_author_name
'Takahashi, Y.'
'Uchida, I.'
'Kijima, N.'
'Nishizawa, M.'
'Dokko, K.'
'Akimoto, J.'
_publ_section_title
;
 Structure and electron density analysis of electrochemically and
 chemically delithiated Li Co O2 single crystals
;
_journal_name_full               'Journal of Solid State Chemistry'
_journal_page_first              313
_journal_page_last               321
_journal_volume                  180
_journal_year                    2007
_chemical_formula_sum            'Co Li0.48 O2'
_chemical_name_systematic        'Li0.48 Co O2'
_space_group_IT_number           166
_symmetry_space_group_name_Hall  '-R 3 2"'
_symmetry_space_group_name_H-M   'R -3 m :H'
_cell_angle_alpha                90
_cell_angle_beta                 90
_cell_angle_gamma                120
_cell_formula_units_Z            3
_cell_length_a                   2.809
_cell_length_b                   2.809
_cell_length_c                   14.389
_cell_volume                     98.325
_citation_journal_id_ASTM        JSSCBI
_cod_data_source_file            Takahashi_JSSCBI_2007_1239.cif
_cod_data_source_block           Co1Li0.48O2
_cod_original_cell_volume        98.32517
_cod_original_formula_sum        'Co1 Li0.48 O2'
_cod_database_code               1528913
loop_
_symmetry_equiv_pos_as_xyz
x,y,z
-y,x-y,z
-x+y,-x,z
y,x,-z
-x,-x+y,-z
x-y,-y,-z
-x,-y,-z
y,-x+y,-z
x-y,x,-z
-y,-x,z
x,x-y,z
-x+y,y,z
x+2/3,y+1/3,z+1/3
-y+2/3,x-y+1/3,z+1/3
-x+y+2/3,-x+1/3,z+1/3
y+2/3,x+1/3,-z+1/3
-x+2/3,-x+y+1/3,-z+1/3
x-y+2/3,-y+1/3,-z+1/3
-x+2/3,-y+1/3,-z+1/3
y+2/3,-x+y+1/3,-z+1/3
x-y+2/3,x+1/3,-z+1/3
-y+2/3,-x+1/3,z+1/3
x+2/3,x-y+1/3,z+1/3
-x+y+2/3,y+1/3,z+1/3
x+1/3,y+2/3,z+2/3
-y+1/3,x-y+2/3,z+2/3
-x+y+1/3,-x+2/3,z+2/3
y+1/3,x+2/3,-z+2/3
-x+1/3,-x+y+2/3,-z+2/3
x-y+1/3,-y+2/3,-z+2/3
-x+1/3,-y+2/3,-z+2/3
y+1/3,-x+y+2/3,-z+2/3
x-y+1/3,x+2/3,-z+2/3
-y+1/3,-x+2/3,z+2/3
x+1/3,x-y+2/3,z+2/3
-x+y+1/3,y+2/3,z+2/3
loop_
_atom_site_label
_atom_site_type_symbol
_atom_site_fract_x
_atom_site_fract_y
_atom_site_fract_z
_atom_site_occupancy
_atom_site_U_iso_or_equiv
Li1 Li+1 0 0 0 0.48 0.0
O1 O-2 0 0 0.23525 1 0.0
Co1 Co+3 0 0 0.5 1 0.0
