#------------------------------------------------------------------------------
#$Date: 2016-02-13 14:50:18 +0200 (Sat, 13 Feb 2016) $
#$Revision: 176428 $
#$URL: svn://www.crystallography.net/cod/cif/1/52/89/1528929.cif $
#------------------------------------------------------------------------------
#
# This file is available in the Crystallography Open Database (COD),
# http://www.crystallography.net/
#
# All data on this site have been placed in the public domain by the
# contributors.
#
data_1528929
loop_
_publ_author_name
'Ting, V.'
'Liu, Y.'
'Withers, R.L.'
'Noren, L.'
'Fitz Gerald, J.D.'
'James, M.'
_publ_section_title
;
 A structure and phase analysis investigation of the 1:1 ordered A2 In Nb
 O6 perovskites (A = Ca(2+), Sr(2+), Ba(2+))
;
_journal_name_full               'Journal of Solid State Chemistry'
_journal_page_first              551
_journal_page_last               562
_journal_volume                  179
_journal_year                    2006
_chemical_formula_sum            'Ca2.08 In0.88 Nb1.04 O6'
_chemical_name_systematic        'Ca2 ((Ca0.08 In0.88 Nb0.04) Nb) O6'
_space_group_IT_number           14
_symmetry_space_group_name_Hall  '-P 2yn'
_symmetry_space_group_name_H-M   'P 1 21/n 1'
_cell_angle_alpha                90
_cell_angle_beta                 89.9243
_cell_angle_gamma                90
_cell_formula_units_Z            2
_cell_length_a                   5.5292
_cell_length_b                   5.7068
_cell_length_c                   7.9216
_cell_volume                     249.958
_citation_journal_id_ASTM        JSSCBI
_cod_data_source_file            Ting_JSSCBI_2006_929.cif
_cod_data_source_block           Ca2.08In0.88Nb1.04O6
_cod_original_cell_volume        249.9583
_cod_original_sg_symbol_Hall     '-P 2ybc (x-z,y,z)'
_cod_database_code               1528929
loop_
_symmetry_equiv_pos_as_xyz
x,y,z
-x+1/2,y+1/2,-z+1/2
-x,-y,-z
x-1/2,-y-1/2,z-1/2
loop_
_atom_site_label
_atom_site_type_symbol
_atom_site_fract_x
_atom_site_fract_y
_atom_site_fract_z
_atom_site_occupancy
_atom_site_U_iso_or_equiv
O1 O-2 0.3082 0.793 0.948 1 0.0
Ca1 Ca+2 0.5093 -0.0486 0.2524 1 0.0
O2 O-2 0.207 0.3082 0.948 1 0.0
In1 In+3 0 0 0 0.88 0.0
Nb1 Nb+5 0 0 0.5 1 0.0
Ca2 Ca+2 0 0 0 0.08 0.0
O3 O-2 0.104 0.0366 0.2562 1 0.0
Nb2 Nb+5 0 0 0 0.04 0.0
