#------------------------------------------------------------------------------
#$Date: 2016-02-13 21:28:24 +0200 (Sat, 13 Feb 2016) $
#$Revision: 176429 $
#$URL: svn://www.crystallography.net/cod/cif/1/52/83/1528362.cif $
#------------------------------------------------------------------------------
#
# This file is available in the Crystallography Open Database (COD),
# http://www.crystallography.net/
#
# All data on this site have been placed in the public domain by the
# contributors.
#
data_1528362
loop_
_publ_author_name
'Blasco, J.'
'Stankiewicz, J.'
'Garcia, J.'
_publ_section_title
;
 Phase segregation in the Gd(1-x) Sr(x) Fe O(3-delta) series
;
_journal_name_full               'Journal of Solid State Chemistry'
_journal_page_first              898
_journal_page_last               908
_journal_volume                  179
_journal_year                    2006
_chemical_formula_sum            'Fe Gd0.333 O2.9 Sr0.667'
_chemical_name_systematic        'Gd0.333 Sr0.667 Fe O2.90'
_space_group_IT_number           221
_symmetry_space_group_name_Hall  '-P 4 2 3'
_symmetry_space_group_name_H-M   'P m -3 m'
_cell_angle_alpha                90
_cell_angle_beta                 90
_cell_angle_gamma                90
_cell_formula_units_Z            1
_cell_length_a                   3.8654
_cell_length_b                   3.8654
_cell_length_c                   3.8654
_cell_volume                     57.754
_citation_journal_id_ASTM        JSSCBI
_cod_data_source_file            Blasco_JSSCBI_2006_872.cif
_cod_data_source_block           Fe1Gd0.333O2.9Sr0.667
_cod_original_cell_volume        57.75417
_cod_original_formula_sum        'Fe1 Gd0.333 O2.9 Sr0.667'
_cod_database_code               1528362
loop_
_symmetry_equiv_pos_as_xyz
x,y,z
-y,x,z
-x,-y,z
y,-x,z
x,-y,-z
y,x,-z
-x,y,-z
-y,-x,-z
z,x,y
-x,z,y
-z,-x,y
x,-z,y
z,-x,-y
x,z,-y
-z,x,-y
-x,-z,-y
y,z,x
y,-z,-x
z,y,-x
-y,z,-x
-z,-y,-x
-y,-z,x
z,-y,x
-z,y,x
-x,-y,-z
y,-x,-z
x,y,-z
-y,x,-z
-x,y,z
-y,-x,z
x,-y,z
y,x,z
-z,-x,-y
x,-z,-y
z,x,-y
-x,z,-y
-z,x,y
-x,-z,y
z,-x,y
x,z,y
-y,-z,-x
-y,z,x
-z,-y,x
y,-z,x
z,y,x
y,z,-x
-z,y,-x
z,-y,-x
loop_
_atom_site_label
_atom_site_type_symbol
_atom_site_fract_x
_atom_site_fract_y
_atom_site_fract_z
_atom_site_occupancy
_atom_site_U_iso_or_equiv
Gd1 Gd+3 0.5 0.5 0.5 0.333 0.0
Sr1 Sr+2 0.5 0.5 0.5 0.667 0.0
Fe1 Fe+3 0 0 0 0.53 0.0
O1 O-2 0.5 0 0 0.9667 0.0
Fe2 Fe+4 0 0 0 0.47 0.0
