#------------------------------------------------------------------------------
#$Date: 2018-09-27 07:13:35 +0300 (Thu, 27 Sep 2018) $
#$Revision: 211196 $
#$URL: file:///home/coder/svn-repositories/cod/cif/1/52/85/1528503.cif $
#------------------------------------------------------------------------------
#
# This file is available in the Crystallography Open Database (COD),
# http://www.crystallography.net/
#
# All data on this site have been placed in the public domain by the
# contributors.
#
data_1528503
loop_
_publ_author_name
'Fu, W.T.'
'Ijdo, D.J.W.'
_publ_section_title
;
 New insight into the symmetry and the structure of the double perovskites
 Ba2 Ln Nb O6 (Ln = lanthanides and Y)
;
_journal_name_full               'Journal of Solid State Chemistry'
_journal_page_first              1022
_journal_page_last               1028
_journal_volume                  179
_journal_year                    2006
_chemical_formula_sum            'Ba2 La Nb O6'
_space_group_IT_number           12
_symmetry_space_group_name_Hall  '-I 2y'
_symmetry_space_group_name_H-M   'I 1 2/m 1'
_cell_angle_alpha                90
_cell_angle_beta                 90.348
_cell_angle_gamma                90
_cell_formula_units_Z            2
_cell_length_a                   6.14448
_cell_length_b                   6.09131
_cell_length_c                   8.604
_cell_volume                     322.024
_citation_journal_id_ASTM        JSSCBI
_cod_data_source_file            Fu_JSSCBI_2006_999.cif
_cod_data_source_block           Ba2La1Nb1O6
_cod_original_sg_symbol_Hall     '-C 2y (x,y,-x+z)'
_cod_original_formula_sum        'Ba2 La1 Nb1 O6'
_cod_database_code               1528503
loop_
_symmetry_equiv_pos_as_xyz
x,y,z
-x,y,-z
-x,-y,-z
x,-y,z
x+1/2,y+1/2,z+1/2
-x+1/2,y+1/2,-z+1/2
-x+1/2,-y+1/2,-z+1/2
x+1/2,-y+1/2,z+1/2
loop_
_atom_site_label
_atom_site_type_symbol
_atom_site_fract_x
_atom_site_fract_y
_atom_site_fract_z
_atom_site_occupancy
_atom_site_U_iso_or_equiv
O1 O-2 0.582 0 0.28 1 0.0
Nb1 Nb+5 0 0.5 0 1 0.0
La1 La+3 0.5 0 0 1 0.0
Ba1 Ba+2 0.4953 0.5 0.2516 1 0.0
O2 O-2 0.213 0.25 0.021 1 0.0
