#------------------------------------------------------------------------------
#$Date: 2016-02-13 21:28:24 +0200 (Sat, 13 Feb 2016) $
#$Revision: 176429 $
#$URL: svn://www.crystallography.net/cod/cif/1/52/84/1528481.cif $
#------------------------------------------------------------------------------
#
# This file is available in the Crystallography Open Database (COD),
# http://www.crystallography.net/
#
# All data on this site have been placed in the public domain by the
# contributors.
#
data_1528481
loop_
_publ_author_name
'Fjellvag, H.'
'Morita, Y.'
'Chen, J.-M.'
'Lee, J.-H.'
'Nagai, T.'
'Awana, V.P.S.'
'Liu, R.-S.'
'Hauback, B.C.'
'Matsui, Y.'
'Yamauchi, H.'
'Karppinen, M.'
_publ_section_title
;
 Hole doping into Co-12s2 copper oxides with s fluorite-structured layers
 between Cu O2 planes
;
_journal_name_full               'Journal of Solid State Chemistry'
_journal_page_first              632
_journal_page_last               645
_journal_volume                  179
_journal_year                    2006
_chemical_formula_sum            'Ca0.4 Co Cu2 O7.152 Sr2 Y0.6'
_chemical_name_systematic        'Co Sr2 (Y0.6 Ca0.4) Cu2 O7.152'
_space_group_IT_number           123
_symmetry_space_group_name_Hall  '-P 4 2'
_symmetry_space_group_name_H-M   'P 4/m m m'
_cell_angle_alpha                90
_cell_angle_beta                 90
_cell_angle_gamma                90
_cell_formula_units_Z            1
_cell_length_a                   3.8157
_cell_length_b                   3.8157
_cell_length_c                   11.272
_cell_volume                     164.115
_citation_journal_id_ASTM        JSSCBI
_cod_data_source_file            Fjellvag_JSSCBI_2006_857.cif
_cod_data_source_block           Ca0.4Co1Cu2O7.152Sr2Y0.6
_cod_original_cell_volume        164.1154
_cod_original_formula_sum        'Ca0.4 Co1 Cu2 O7.152 Sr2 Y0.6'
_cod_database_code               1528481
loop_
_symmetry_equiv_pos_as_xyz
x,y,z
-y,x,z
-x,-y,z
y,-x,z
x,-y,-z
y,x,-z
-x,y,-z
-y,-x,-z
-x,-y,-z
y,-x,-z
x,y,-z
-y,x,-z
-x,y,z
-y,-x,z
x,-y,z
y,x,z
loop_
_atom_site_label
_atom_site_type_symbol
_atom_site_fract_x
_atom_site_fract_y
_atom_site_fract_z
_atom_site_occupancy
_atom_site_U_iso_or_equiv
Sr1 Sr+2 0.5 0.5 0.1879 1 0.0
Ca1 Ca+2 0.5 0.5 0.5 0.4 0.0
O1 O-2 0.5 0.83 0.009 0.109 0.0
Cu1 Cu+2 0 0 0.3553 1 0.0
Y1 Y+3 0.5 0.5 0.5 0.6 0.0
O2 O-2 0.5 0 0 0.14 0.0
O4 O-2 0.5 0 0.3668 1 0.0
O3 O-2 0 0 0.1621 1 0.0
Co1 Co+3 0 0 0 1 0.0
