#------------------------------------------------------------------------------
#$Date: 2016-02-13 21:28:24 +0200 (Sat, 13 Feb 2016) $
#$Revision: 176429 $
#$URL: svn://www.crystallography.net/cod/cif/1/52/82/1528297.cif $
#------------------------------------------------------------------------------
#
# This file is available in the Crystallography Open Database (COD),
# http://www.crystallography.net/
#
# All data on this site have been placed in the public domain by the
# contributors.
#
data_1528297
loop_
_publ_author_name
'Aksenova, T.V.'
'Gavrilova, L.Ya.'
'Cherepanov, V.A.'
_publ_section_title
;
 Phase equilibria and crystal structure of the complex oxides in the
 Sr-Fe-Co-O system
;
_journal_name_full               'Journal of Solid State Chemistry'
_journal_page_first              1480
_journal_page_last               1484
_journal_volume                  181
_journal_year                    2008
_chemical_formula_sum            'Co0.6 Fe0.4 O2.56 Sr'
_chemical_name_systematic        'Sr Fe0.4 Co0.6 O2.56'
_space_group_IT_number           221
_symmetry_space_group_name_Hall  '-P 4 2 3'
_symmetry_space_group_name_H-M   'P m -3 m'
_cell_angle_alpha                90
_cell_angle_beta                 90
_cell_angle_gamma                90
_cell_formula_units_Z            1
_cell_length_a                   3.864
_cell_length_b                   3.864
_cell_length_c                   3.864
_cell_volume                     57.691
_citation_journal_id_ASTM        JSSCBI
_cod_data_source_file            Aksenova_JSSCBI_2008_1531.cif
_cod_data_source_block           Co0.6Fe0.4O2.56Sr1
_cod_original_cell_volume        57.69144
_cod_original_formula_sum        'Co0.6 Fe0.4 O2.56 Sr1'
_cod_database_code               1528297
loop_
_symmetry_equiv_pos_as_xyz
x,y,z
-y,x,z
-x,-y,z
y,-x,z
x,-y,-z
y,x,-z
-x,y,-z
-y,-x,-z
z,x,y
-x,z,y
-z,-x,y
x,-z,y
z,-x,-y
x,z,-y
-z,x,-y
-x,-z,-y
y,z,x
y,-z,-x
z,y,-x
-y,z,-x
-z,-y,-x
-y,-z,x
z,-y,x
-z,y,x
-x,-y,-z
y,-x,-z
x,y,-z
-y,x,-z
-x,y,z
-y,-x,z
x,-y,z
y,x,z
-z,-x,-y
x,-z,-y
z,x,-y
-x,z,-y
-z,x,y
-x,-z,y
z,-x,y
x,z,y
-y,-z,-x
-y,z,x
-z,-y,x
y,-z,x
z,y,x
y,z,-x
-z,y,-x
z,-y,-x
loop_
_atom_site_label
_atom_site_type_symbol
_atom_site_fract_x
_atom_site_fract_y
_atom_site_fract_z
_atom_site_occupancy
_atom_site_U_iso_or_equiv
Co1 Co+3 0 0 0 0.6 0.0
O1 O-2 0.5 0 0 0.8533 0.0
Fe1 Fe+3 0 0 0 0.4 0.0
Sr1 Sr+2 0.5 0.5 0.5 1 0.0
