#------------------------------------------------------------------------------
#$Date: 2016-02-13 21:28:24 +0200 (Sat, 13 Feb 2016) $
#$Revision: 176429 $
#$URL: svn://www.crystallography.net/cod/cif/1/52/86/1528632.cif $
#------------------------------------------------------------------------------
#
# This file is available in the Crystallography Open Database (COD),
# http://www.crystallography.net/
#
# All data on this site have been placed in the public domain by the
# contributors.
#
data_1528632
loop_
_publ_author_name
'Kennedy, B.J.'
'Zhang Zhaoming'
'Saines, P.J.'
'Zhou Qingdi'
'Matsuda, M.'
'Miyake, M.'
_publ_section_title
;
 Structural and electronic phase transitions in Sr(1-x) Ce(x) Mn O3
 perovskites
;
_journal_name_full               'Journal of Solid State Chemistry'
_journal_page_first              2639
_journal_page_last               2645
_journal_volume                  181
_journal_year                    2008
_chemical_formula_sum            'Ce0.075 Mn O3 Sr0.925'
_chemical_name_systematic        '(Sr0.925 Ce0.075) Mn O3'
_space_group_IT_number           221
_symmetry_space_group_name_Hall  '-P 4 2 3'
_symmetry_space_group_name_H-M   'P m -3 m'
_cell_angle_alpha                90
_cell_angle_beta                 90
_cell_angle_gamma                90
_cell_formula_units_Z            1
_cell_length_a                   3.8185
_cell_length_b                   3.8185
_cell_length_c                   3.8185
_cell_volume                     55.677
_citation_journal_id_ASTM        JSSCBI
_cod_data_source_file            Kennedy_JSSCBI_2008_1592.cif
_cod_data_source_block           Ce0.075Mn1O3Sr0.925
_cod_original_cell_volume        55.67733
_cod_original_formula_sum        'Ce0.075 Mn1 O3 Sr0.925'
_cod_database_code               1528632
loop_
_symmetry_equiv_pos_as_xyz
x,y,z
-y,x,z
-x,-y,z
y,-x,z
x,-y,-z
y,x,-z
-x,y,-z
-y,-x,-z
z,x,y
-x,z,y
-z,-x,y
x,-z,y
z,-x,-y
x,z,-y
-z,x,-y
-x,-z,-y
y,z,x
y,-z,-x
z,y,-x
-y,z,-x
-z,-y,-x
-y,-z,x
z,-y,x
-z,y,x
-x,-y,-z
y,-x,-z
x,y,-z
-y,x,-z
-x,y,z
-y,-x,z
x,-y,z
y,x,z
-z,-x,-y
x,-z,-y
z,x,-y
-x,z,-y
-z,x,y
-x,-z,y
z,-x,y
x,z,y
-y,-z,-x
-y,z,x
-z,-y,x
y,-z,x
z,y,x
y,z,-x
-z,y,-x
z,-y,-x
loop_
_atom_site_label
_atom_site_type_symbol
_atom_site_fract_x
_atom_site_fract_y
_atom_site_fract_z
_atom_site_occupancy
_atom_site_U_iso_or_equiv
Mn1 Mn+3 0.5 0.5 0.5 1 0.0
Sr1 Sr+2 0 0 0 0.925 0.0
O1 O-2 0.5 0.5 0 1 0.0
Ce1 Ce+3 0 0 0 0.075 0.0
