#------------------------------------------------------------------------------
#$Date: 2016-02-13 21:28:24 +0200 (Sat, 13 Feb 2016) $
#$Revision: 176429 $
#$URL: svn://www.crystallography.net/cod/cif/1/52/82/1528206.cif $
#------------------------------------------------------------------------------
#
# This file is available in the Crystallography Open Database (COD),
# http://www.crystallography.net/
#
# All data on this site have been placed in the public domain by the
# contributors.
#
data_1528206
loop_
_publ_author_name
'Wilhelmi, K.A.'
_publ_section_title
;
 The crystal structure of K Cr3 O8
;
_journal_name_full
'Acta Chemica Scandinavica (1-27,1973-42,1988)'
_journal_page_first              1965
_journal_page_last               1976
_journal_volume                  12
_journal_year                    1958
_chemical_formula_sum            'Cr3 K O8'
_chemical_name_systematic        'K Cr (Cr O4)2'
_space_group_IT_number           12
_symmetry_space_group_name_Hall  '-C 2y'
_symmetry_space_group_name_H-M   'C 1 2/m 1'
_cell_angle_alpha                90
_cell_angle_beta                 96.65
_cell_angle_gamma                90
_cell_formula_units_Z            2
_cell_length_a                   8.593
_cell_length_b                   5.466
_cell_length_c                   7.641
_cell_volume                     356.478
_citation_journal_id_ASTM        ACSAA4
_cod_data_source_file            Wilhelmi_ACSAA4_1958_1727.cif
_cod_data_source_block           Cr3K1O8
_cod_original_cell_volume        356.4781
_cod_original_formula_sum        'Cr3 K1 O8'
_cod_database_code               1528206
loop_
_symmetry_equiv_pos_as_xyz
x,y,z
-x,y,-z
-x,-y,-z
x,-y,z
x+1/2,y+1/2,z
-x+1/2,y+1/2,-z
-x+1/2,-y+1/2,-z
x+1/2,-y+1/2,z
loop_
_atom_site_label
_atom_site_type_symbol
_atom_site_fract_x
_atom_site_fract_y
_atom_site_fract_z
_atom_site_occupancy
_atom_site_U_iso_or_equiv
O1 O-2 0.225 0 0.551 1 0.0
O3 O-2 0.024 0.25 0.315 1 0.0
Cr1 Cr+3 0 0 0.5 1 0.0
Cr2 Cr+6 0.625 0 0.293 1 0.0
K1 K+1 0 0 0 1 0.0
O2 O-2 0.682 0 0.108 1 0.0
