#------------------------------------------------------------------------------
#$Date: 2016-02-13 21:28:24 +0200 (Sat, 13 Feb 2016) $
#$Revision: 176429 $
#$URL: svn://www.crystallography.net/cod/cif/1/52/86/1528621.cif $
#------------------------------------------------------------------------------
#
# This file is available in the Crystallography Open Database (COD),
# http://www.crystallography.net/
#
# All data on this site have been placed in the public domain by the
# contributors.
#
data_1528621
loop_
_publ_author_name
'Karen, P.'
'Gustafsson, K.'
'Linden, J.'
_publ_section_title
;
 Eu Ba Fe2 O(5+w): Valence mixing and charge ordering are two separate
 cooperative phenomena
;
_journal_name_full               'Journal of Solid State Chemistry'
_journal_page_first              148
_journal_page_last               157
_journal_volume                  180
_journal_year                    2007
_chemical_formula_sum            'Ba Eu Fe2 O5.149'
_chemical_name_systematic        'Eu Ba Fe2 O5.149'
_space_group_IT_number           47
_symmetry_space_group_name_Hall  '-P 2 2'
_symmetry_space_group_name_H-M   'P m m m'
_cell_angle_alpha                90
_cell_angle_beta                 90
_cell_angle_gamma                90
_cell_formula_units_Z            1
_cell_length_a                   3.99644
_cell_length_b                   3.89407
_cell_length_c                   7.63427
_cell_volume                     118.808
_citation_journal_id_ASTM        JSSCBI
_cod_data_source_file            Karen_JSSCBI_2007_1222.cif
_cod_data_source_block           Ba1Eu1Fe2O5.149
_cod_original_cell_volume        118.8077
_cod_original_formula_sum        'Ba1 Eu1 Fe2 O5.149'
_cod_database_code               1528621
loop_
_symmetry_equiv_pos_as_xyz
x,y,z
-x,-y,z
x,-y,-z
-x,y,-z
-x,-y,-z
x,y,-z
-x,y,z
x,-y,z
loop_
_atom_site_label
_atom_site_type_symbol
_atom_site_fract_x
_atom_site_fract_y
_atom_site_fract_z
_atom_site_occupancy
_atom_site_U_iso_or_equiv
Eu1 Eu+3 0 0 0.5 1 0.0
O1 O-2 0.5 0.5 0 1 0.0
Ba1 Ba+2 0 0 0 1 0.0
O4 O-2 0.5 0.5 0.5 0.149 0.0
Fe1 Fe+2 0.5 0.5 0.2589 1 0.0
O2 O-2 0.5 0 0.3054 1 0.0
O3 O-2 0 0.5 0.3054 1 0.0
