#------------------------------------------------------------------------------
#$Date: 2016-02-13 21:28:24 +0200 (Sat, 13 Feb 2016) $
#$Revision: 176429 $
#$URL: svn://www.crystallography.net/cod/cif/1/52/83/1528359.cif $
#------------------------------------------------------------------------------
#
# This file is available in the Crystallography Open Database (COD),
# http://www.crystallography.net/
#
# All data on this site have been placed in the public domain by the
# contributors.
#
data_1528359
loop_
_publ_author_name
'Blasco, J.'
'Stankiewicz, J.'
'Garcia, J.'
_publ_section_title
;
 Phase segregation in the Gd(1-x) Sr(x) Fe O(3-delta) series
;
_journal_name_full               'Journal of Solid State Chemistry'
_journal_page_first              898
_journal_page_last               908
_journal_volume                  179
_journal_year                    2006
_chemical_formula_sum            'Fe Gd O3'
_chemical_name_systematic        'Gd Fe O3'
_space_group_IT_number           62
_symmetry_space_group_name_Hall  '-P 2c 2ab'
_symmetry_space_group_name_H-M   'P b n m'
_cell_angle_alpha                90
_cell_angle_beta                 90
_cell_angle_gamma                90
_cell_formula_units_Z            4
_cell_length_a                   5.349
_cell_length_b                   5.6089
_cell_length_c                   7.6687
_cell_volume                     230.076
_citation_journal_id_ASTM        JSSCBI
_cod_data_source_file            Blasco_JSSCBI_2006_869.cif
_cod_data_source_block           Fe1Gd1O3
_cod_original_cell_volume        230.0764
_cod_original_sg_symbol_Hall     '-P 2ac 2n (z,x,y)'
_cod_original_formula_sum        'Fe1 Gd1 O3'
_cod_database_code               1528359
loop_
_symmetry_equiv_pos_as_xyz
x,y,z
x+1/2,-y+1/2,-z
-x+1/2,y+1/2,-z+1/2
-x,-y,z+1/2
-x,-y,-z
-x-1/2,y-1/2,z
x-1/2,-y-1/2,z-1/2
x,y,-z-1/2
loop_
_atom_site_label
_atom_site_type_symbol
_atom_site_fract_x
_atom_site_fract_y
_atom_site_fract_z
_atom_site_occupancy
_atom_site_U_iso_or_equiv
O1 O-2 0.1116 0.4569 0.25 1 0.0
O2 O-2 0.696 0.3021 0.0521 1 0.0
Gd1 Gd+3 0.9846 0.0629 0.25 1 0.0
Fe1 Fe+3 0.5 0 0 1 0.0
