#------------------------------------------------------------------------------
#$Date: 2016-02-13 21:28:24 +0200 (Sat, 13 Feb 2016) $
#$Revision: 176429 $
#$URL: svn://www.crystallography.net/cod/cif/1/52/91/1529155.cif $
#------------------------------------------------------------------------------
#
# This file is available in the Crystallography Open Database (COD),
# http://www.crystallography.net/
#
# All data on this site have been placed in the public domain by the
# contributors.
#
data_1529155
loop_
_publ_author_name
'Park, K.S.'
'Cho, M.H.'
'Jin, S.J.'
'Nahm, K.S.'
'Hong Young-Sik'
_publ_section_title
;
 Effect of Li ion in transition metal sites on electrochemical behaviour
 of layered lithium manganese oxides solid solutions
;
_journal_name_full               'Solid State Ionics'
_journal_page_first              141
_journal_page_last               146
_journal_volume                  171
_journal_year                    2004
_chemical_formula_sum            'Co0.5 Li Mn0.25 Ni0.25 O2'
_chemical_name_systematic        'Li ((Ni0.25 Co0.5 Mn0.25) O2)'
_space_group_IT_number           166
_symmetry_space_group_name_Hall  '-R 3 2"'
_symmetry_space_group_name_H-M   'R -3 m :H'
_cell_angle_alpha                90
_cell_angle_beta                 90
_cell_angle_gamma                120
_cell_formula_units_Z            3
_cell_length_a                   2.8498
_cell_length_b                   2.8498
_cell_length_c                   14.2078
_cell_volume                     99.928
_citation_journal_id_ASTM        SSIOD3
_cod_data_source_file            Park_SSIOD3_2004_34.cif
_cod_data_source_block           Co0.5Li1Mn0.25Ni0.25O2
_cod_original_cell_volume        99.92779
_cod_original_formula_sum        'Co0.5 Li1 Mn0.25 Ni0.25 O2'
_cod_database_code               1529155
loop_
_symmetry_equiv_pos_as_xyz
x,y,z
-y,x-y,z
-x+y,-x,z
y,x,-z
-x,-x+y,-z
x-y,-y,-z
-x,-y,-z
y,-x+y,-z
x-y,x,-z
-y,-x,z
x,x-y,z
-x+y,y,z
x+2/3,y+1/3,z+1/3
-y+2/3,x-y+1/3,z+1/3
-x+y+2/3,-x+1/3,z+1/3
y+2/3,x+1/3,-z+1/3
-x+2/3,-x+y+1/3,-z+1/3
x-y+2/3,-y+1/3,-z+1/3
-x+2/3,-y+1/3,-z+1/3
y+2/3,-x+y+1/3,-z+1/3
x-y+2/3,x+1/3,-z+1/3
-y+2/3,-x+1/3,z+1/3
x+2/3,x-y+1/3,z+1/3
-x+y+2/3,y+1/3,z+1/3
x+1/3,y+2/3,z+2/3
-y+1/3,x-y+2/3,z+2/3
-x+y+1/3,-x+2/3,z+2/3
y+1/3,x+2/3,-z+2/3
-x+1/3,-x+y+2/3,-z+2/3
x-y+1/3,-y+2/3,-z+2/3
-x+1/3,-y+2/3,-z+2/3
y+1/3,-x+y+2/3,-z+2/3
x-y+1/3,x+2/3,-z+2/3
-y+1/3,-x+2/3,z+2/3
x+1/3,x-y+2/3,z+2/3
-x+y+1/3,y+2/3,z+2/3
loop_
_atom_site_label
_atom_site_type_symbol
_atom_site_fract_x
_atom_site_fract_y
_atom_site_fract_z
_atom_site_occupancy
_atom_site_U_iso_or_equiv
Co1 Co+2 0 0 0.5 0.5 0.0
Ni1 Ni+4 0 0 0.5 0.25 0.0
Mn1 Mn+4 0 0 0.5 0.25 0.0
O1 O-2 0 0 0.259 1 0.0
Li1 Li+1 0 0 0 1 0.0
