#------------------------------------------------------------------------------
#$Date: 2016-02-13 14:50:18 +0200 (Sat, 13 Feb 2016) $
#$Revision: 176428 $
#$URL: svn://www.crystallography.net/cod/cif/1/52/91/1529160.cif $
#------------------------------------------------------------------------------
#
# This file is available in the Crystallography Open Database (COD),
# http://www.crystallography.net/
#
# All data on this site have been placed in the public domain by the
# contributors.
#
data_1529160
loop_
_publ_author_name
'Ritter, C.'
'Blasco, J.'
'Garcia, J.'
'Serrate, D.'
'de Teresa, J.M.'
'Morellon, L.'
'Ibarra, M.R.'
_publ_section_title
;
 Structural and magnetic details of 3d-element doped Sr2 Fe0.75 T0.25 Mo
 O6
;
_journal_name_full               'Solid State Sciences'
_journal_page_first              419
_journal_page_last               431
_journal_volume                  6
_journal_year                    2004
_chemical_formula_sum            'Fe0.73 Mo0.98 O5.96 Sc0.25 Sr2'
_chemical_name_systematic
'Sr2 (Fe0.62 Sc0.25 Mo0.11) ((Mo0.87 Fe0.11) O5.96)'
_space_group_IT_number           14
_symmetry_space_group_name_Hall  '-P 2yn'
_symmetry_space_group_name_H-M   'P 1 21/n 1'
_cell_angle_alpha                90
_cell_angle_beta                 89.99
_cell_angle_gamma                90
_cell_formula_units_Z            2
_cell_length_a                   5.6108
_cell_length_b                   5.5915
_cell_length_c                   7.9032
_cell_volume                     247.945
_citation_journal_id_ASTM        SSSCFJ
_cod_data_source_file            Ritter_SSSCFJ_2004_52.cif
_cod_data_source_block           Fe0.73Mo0.98O5.96Sc0.25Sr2
_cod_original_cell_volume        247.9454
_cod_original_sg_symbol_Hall     '-P 2ybc (x-z,y,z)'
_cod_database_code               1529160
loop_
_symmetry_equiv_pos_as_xyz
x,y,z
-x+1/2,y+1/2,-z+1/2
-x,-y,-z
x-1/2,-y-1/2,z-1/2
loop_
_atom_site_label
_atom_site_type_symbol
_atom_site_fract_x
_atom_site_fract_y
_atom_site_fract_z
_atom_site_occupancy
_atom_site_U_iso_or_equiv
O2 O-2 0.2675 0.2597 0.5217 0.993 0.0
Mo2 Mo+3 0.5 0 0 0.11 0.0
O3 O-2 0.9606 0.5002 0.7527 0.993 0.0
Mo1 Mo+6 0.5 0 0.5 0.87 0.0
O1 O-2 0.2513 0.2572 0.981 0.993 0.0
Sr1 Sr+2 0.002 -0.004 0.7525 1 0.0
Fe2 Fe+2 0.5 0 0 0.62 0.0
Sc1 Sc+3 0.5 0 0 0.25 0.0
Fe1 Fe+3 0.5 0 0.5 0.11 0.0
