#------------------------------------------------------------------------------
#$Date: 2015-07-17 16:37:16 +0300 (Fri, 17 Jul 2015) $
#$Revision: 152199 $
#$URL: svn://www.crystallography.net/cod/cif/1/52/91/1529136.cif $
#------------------------------------------------------------------------------
#
# This file is available in the Crystallography Open Database (COD),
# http://www.crystallography.net/
#
# All data on this site have been placed in the public domain by the
# contributors.
#
data_1529136
loop_
_publ_author_name
'Jha, P.'
'Ganguli, A.K.'
_publ_section_title
;
 Complex rare-earth titanates with the perovskite structure: Rietveld
 studies and dielectric properties
;
_journal_name_full               'Solid State Sciences'
_journal_page_first              663
_journal_page_last               671
_journal_volume                  6
_journal_year                    2004
_chemical_formula_sum
'Ba0.69 Ca0.17 Cd0.114 La0.361 O3.096 Ti0.886'
_chemical_name_systematic
;
(La0.361 Ba0.690 Ca0.17) ((Cd0.114 Ti0.886) O3.096)
;
_space_group_IT_number           221
_symmetry_space_group_name_Hall  '-P 4 2 3'
_symmetry_space_group_name_H-M   'P m -3 m'
_cell_angle_alpha                90
_cell_angle_beta                 90
_cell_angle_gamma                90
_cell_formula_units_Z            1
_cell_length_a                   4.0411
_cell_length_b                   4.0411
_cell_length_c                   4.0411
_cell_volume                     65.993
_citation_journal_id_ASTM        SSSCFJ
_cod_data_source_file            Jha_SSSCFJ_2004_94.cif
_cod_data_source_block           Ba0.69Ca0.17Cd0.114La0.361O3.096Ti0.886
_cod_original_cell_volume        65.99314
_cod_database_code               1529136
loop_
_symmetry_equiv_pos_as_xyz
x,y,z
-y,x,z
-x,-y,z
y,-x,z
x,-y,-z
y,x,-z
-x,y,-z
-y,-x,-z
z,x,y
-x,z,y
-z,-x,y
x,-z,y
z,-x,-y
x,z,-y
-z,x,-y
-x,-z,-y
y,z,x
y,-z,-x
z,y,-x
-y,z,-x
-z,-y,-x
-y,-z,x
z,-y,x
-z,y,x
-x,-y,-z
y,-x,-z
x,y,-z
-y,x,-z
-x,y,z
-y,-x,z
x,-y,z
y,x,z
-z,-x,-y
x,-z,-y
z,x,-y
-x,z,-y
-z,x,y
-x,-z,y
z,-x,y
x,z,y
-y,-z,-x
-y,z,x
-z,-y,x
y,-z,x
z,y,x
y,z,-x
-z,y,-x
z,-y,-x
loop_
_atom_site_label
_atom_site_type_symbol
_atom_site_fract_x
_atom_site_fract_y
_atom_site_fract_z
_atom_site_occupancy
_atom_site_U_iso_or_equiv
Cd1 Cd+2 0.5 0.5 0.5 0.114 0.0
Ti1 Ti+4 0.5 0.5 0.5 0.886 0.0
O1 O-2 0 0.5 0.5 1.032 0.0
Ca1 Ca+2 0 0 0 0.166 0.0
Ba1 Ba+2 0 0 0 0.69 0.0
La1 La+3 0 0 0 0.361 0.0
