#------------------------------------------------------------------------------
#$Date: 2018-01-23 14:43:58 +0200 (Tue, 23 Jan 2018) $
#$Revision: 205493 $
#$URL: file:///home/coder/svn-repositories/cod/cif/1/52/94/1529495.cif $
#------------------------------------------------------------------------------
#
# This file is available in the Crystallography Open Database (COD),
# http://www.crystallography.net/
#
# All data on this site have been placed in the public domain by the
# contributors.
#
data_1529495
loop_
_publ_author_name
'Jun Zhou'
'Zhiguo Xia'
'Mingyue Chen'
'Maxim S. Molokeev'
'Quanlin Liu'
_publ_section_title
;
 New Insight into Phase Formation of MxMg2Al4+xSi5-xO18:Eu2+ Solid
 Solution Phosphors and Its Luminescence Properties
;
_journal_issue                   0
_journal_name_full               'Scientific Reports'
_journal_page_first              12149
_journal_page_last               12153
_journal_paper_doi               10.1038/srep12149
_journal_volume                  5
_journal_year                    2015
_chemical_formula_moiety         'Al9 Mg4 O36 Si9, K'
_chemical_formula_sum            'Al9 K Mg4 O36 Si9'
_chemical_formula_weight         1207.97
_space_group_IT_number           192
_symmetry_cell_setting           hexagonal
_symmetry_space_group_name_Hall  '-P 6 2c'
_symmetry_space_group_name_H-M   'P 6/m c c'
_cell_angle_alpha                90
_cell_angle_beta                 90
_cell_angle_gamma                120
_cell_formula_units_Z            1
_cell_length_a                   9.79964(49)
_cell_length_b                   9.79964(49)
_cell_length_c                   9.36376(55)
_cell_measurement_temperature    300
_cell_volume                     778.76(7)
_diffrn_ambient_temperature      300
_diffrn_measurement_device_type
;
D8 ADVANCE Bruker
;
_diffrn_radiation_monochromator  none
_diffrn_radiation_probe          x-ray
_diffrn_radiation_type
;
 Cu K\a~1~~2~
;
_exptl_absorpt_coefficient_mu    9.437
_exptl_crystal_density_diffrn    2.576
_pd_char_colour
;
colourless
;
_pd_meas_2theta_range_inc        0.02
_pd_meas_2theta_range_max        120.007591
_pd_meas_2theta_range_min        5.0020266
_pd_meas_scan_method             step
_pd_proc_ls_pref_orient_corr
;
Anisotropic model of PO. Spherical harmonics 6 ordrer.
 Jarvinen (1993). Application of symmetrized harmonics expansion to correction
of the preferred orientation effect. - J. Appl. Cryst. 26 p525-531.
;
_pd_proc_ls_profile_function     PearsonVII
_pd_proc_ls_prof_R_factor        5.758
_pd_proc_ls_prof_wR_expected     2.907
_pd_proc_ls_prof_wR_factor       8.438
_pd_proc_number_of_points        5750.27822
_pd_spec_mount_mode              reflection
_refine_ls_goodness_of_fit_all   2.903
_refine_ls_R_I_factor            2.35
_refine_ls_shift/su_max          0.01000
_cod_data_source_file            K0p5Mg2Al4p5Si4p5O18_Eu.cif
_cod_data_source_block           a
_cod_original_cell_volume        778.756(90)
_cod_original_sg_symbol_Hall
;
-P 6 2c
;
_cod_original_sg_symbol_H-M      P6/mcc
_cod_original_formula_sum
;
Al9 K Mg4 O36 Si9
;
_cod_database_code               1529495
_cod_database_fobs_code          1529495
loop_
_symmetry_equiv_pos_as_xyz
'x, y, z'
'-x, -x+y, -z+1/2'
'-x, -x+y, z+1/2'
'-x, -y, -z'
'-x, -y, z'
'-x+y, -x, -z'
'-x+y, -x, z'
'-x+y, y, -z+1/2'
'-x+y, y, z+1/2'
'-y, -x, -z+1/2'
'-y, -x, z+1/2'
'-y, x-y, -z'
'-y, x-y, z'
'y, -x+y, -z'
'y, -x+y, z'
'y, x, -z+1/2'
'y, x, z+1/2'
'x-y, -y, -z+1/2'
'x-y, -y, z+1/2'
'x-y, x, -z'
'x-y, x, z'
'x, y, -z'
'x, x-y, -z+1/2'
'x, x-y, z+1/2'
loop_
_atom_site_label
_atom_site_type_symbol
_atom_site_fract_x
_atom_site_fract_y
_atom_site_fract_z
_atom_site_occupancy
_atom_site_B_iso_or_equiv
Mg Mg 0.3333333 0.6666667 0.25 1 0.47(22)
Si1 Si 0.5 0.5 0.25 0.5 0.85(19)
Al1 Al 0.5 0.5 0.25 0.5 0.85(19)
Si2 Si 0.37131(32) 0.26598(42) 0 0.5 0.79(18)
Al2 Al 0.37131(32) 0.26598(42) 0 0.5 0.79(18)
O1 O 0.48148(50) 0.34704(43) 0.14763(41) 1 1.26(19)
O2 O 0.22223(73) 0.30374(63) 0 1 1.26(19)
K K 0 0 0.3463(15) 0.25 5.00(57)
loop_
_diffrn_radiation_wavelength
_diffrn_radiation_wavelength_wt
1.5406 1.0000
1.5443 0.5000
loop_
_geom_angle_atom_site_label_1
_geom_angle_atom_site_label_2
_geom_angle_atom_site_label_3
_geom_angle
_geom_angle_site_symmetry_1
_geom_angle_site_symmetry_3
O1 Mg O1 84.02(13) 2_665 5_665
O1 Mg O1 74.12(16) 2_665 15_565
O1 Mg O1 101.07(15) 2_665 16_555
O1 Si1 O1 111.84(22) 1_555 5_665
O1 Si1 O1 96.34(17) 1_555 10_665
O1 Si1 O1 121.17(25) 1_555 16_555
O1 Al1 O1 111.84(22) 1_555 5_665
O1 Al1 O1 96.34(17) 1_555 10_665
O1 Al1 O1 121.17(25) 1_555 16_555
O1 Si2 O1 109.94(25) 1_555 22_555
O1 Si2 O2 108.7(20) 1_555 1_555
O1 Si2 O2 109.94(24) 1_555 14_555
O2 Si2 O2 109.79(31) 1_555 14_555
O1 Al2 O1 109.94(25) 1_555 22_555
O1 Al2 O2 108.7(20) 1_555 1_555
O1 Al2 O2 109.94(24) 1_555 14_555
O2 Al2 O2 109.79(31) 1_555 14_555
loop_
_geom_bond_atom_site_label_1
_geom_bond_atom_site_label_2
_geom_bond_distance
_geom_bond_site_symmetry_2
Mg O1 2.1152(36) 2_665
Si1 O1 1.7107(36) .
Al1 O1 1.7107(36) .
Si2 O1 1.6882(40) .
Si2 O2 1.6769(43) .
Si2 O2 1.5841(64) 14_555
Al2 O1 1.6882(40) .
Al2 O2 1.6769(43) .
Al2 O2 1.5841(64) 14_555
