#------------------------------------------------------------------------------
#$Date: 2016-02-13 21:28:24 +0200 (Sat, 13 Feb 2016) $
#$Revision: 176429 $
#$URL: svn://www.crystallography.net/cod/cif/1/52/91/1529165.cif $
#------------------------------------------------------------------------------
#
# This file is available in the Crystallography Open Database (COD),
# http://www.crystallography.net/
#
# All data on this site have been placed in the public domain by the
# contributors.
#
data_1529165
loop_
_publ_author_name
'Ritter, C.'
'Serrate, D.'
'Blasco, J.'
'de Teresa, J.M.'
'Garcia, J.'
'Morellon, L.'
'Ibarra, M.R.'
_publ_section_title
;
 Structural and magnetic details of 3d-element doped Sr2 Fe0.75 T0.25 Mo
 O6
;
_journal_name_full               'Solid State Sciences'
_journal_page_first              419
_journal_page_last               431
_journal_volume                  6
_journal_year                    2004
_chemical_formula_sum            'Cr0.25 Fe0.75 Mo O5.9 Sr2'
_chemical_name_systematic
;
Sr2 (Fe0.69 Cr0.09 Mo0.22) ((Mo0.78 Fe0.06 Cr0.16) O5.9)
;
_space_group_IT_number           87
_symmetry_space_group_name_Hall  '-I 4'
_symmetry_space_group_name_H-M   'I 4/m'
_cell_angle_alpha                90
_cell_angle_beta                 90
_cell_angle_gamma                90
_cell_formula_units_Z            2
_cell_length_a                   5.5552
_cell_length_b                   5.5552
_cell_length_c                   7.8767
_cell_volume                     243.077
_citation_journal_id_ASTM        SSSCFJ
_cod_data_source_file            Ritter_SSSCFJ_2004_62.cif
_cod_data_source_block           Cr0.25Fe0.75Mo1O5.9Sr2
_cod_original_cell_volume        243.0769
_cod_original_formula_sum        'Cr0.25 Fe0.75 Mo1 O5.9 Sr2'
_cod_database_code               1529165
loop_
_symmetry_equiv_pos_as_xyz
x,y,z
-y,x,z
-x,-y,z
y,-x,z
-x,-y,-z
y,-x,-z
x,y,-z
-y,x,-z
x+1/2,y+1/2,z+1/2
-y+1/2,x+1/2,z+1/2
-x+1/2,-y+1/2,z+1/2
y+1/2,-x+1/2,z+1/2
-x+1/2,-y+1/2,-z+1/2
y+1/2,-x+1/2,-z+1/2
x+1/2,y+1/2,-z+1/2
-y+1/2,x+1/2,-z+1/2
loop_
_atom_site_label
_atom_site_type_symbol
_atom_site_fract_x
_atom_site_fract_y
_atom_site_fract_z
_atom_site_occupancy
_atom_site_U_iso_or_equiv
Mo2 Mo+3 0 0 0 0.22 0.0
Cr1 Cr+3 0 0 0.5 0.16 0.0
O2 O-2 0 0 0.2591 0.983 0.0
Mo1 Mo+6 0 0 0.5 0.78 0.0
Sr1 Sr+2 0 0.5 0.25 1 0.0
O1 O-2 0.2644 0.2302 0 0.983 0.0
Fe2 Fe+2 0 0 0 0.69 0.0
Cr2 Cr+3 0 0 0 0.09 0.0
Fe1 Fe+3 0 0 0.5 0.06 0.0
