#------------------------------------------------------------------------------
#$Date: 2015-07-14 03:15:07 +0300 (Tue, 14 Jul 2015) $
#$Revision: 151963 $
#$URL: svn://www.crystallography.net/cod/cif/1/52/90/1529037.cif $
#------------------------------------------------------------------------------
#
# This file is available in the Crystallography Open Database (COD),
# http://www.crystallography.net/
#
# All data on this site have been placed in the public domain by the
# contributors.
#
data_1529037
loop_
_publ_author_name
'Yoder, H.S.'
'Keith, M.L.'
_publ_section_title
;
 Complete substitution of aluminum for silicon: The system (Mn O)3 Al2 O3
 (Si O2)3 - (Y2 O3)3 (Al2 O3)5
;
_journal_name_full               'Geological Society of America, Bulletin'
_journal_page_first              1516
_journal_page_last               1517
_journal_volume                  61
_journal_year                    1950
_chemical_formula_sum            'Al5 O12 Y3'
_chemical_name_systematic        'Al5 Y3 O12'
_space_group_IT_number           230
_symmetry_space_group_name_Hall  '-I 4bd 2c 3'
_symmetry_space_group_name_H-M   'I a -3 d'
_cell_angle_alpha                90
_cell_angle_beta                 90
_cell_angle_gamma                90
_cell_formula_units_Z            8
_cell_length_a                   12.01
_cell_length_b                   12.01
_cell_length_c                   12.01
_cell_volume                     1732.324
_citation_journal_id_ASTM        BUGMAF
_cod_data_source_file            Yoder_BUGMAF_1950_309.cif
_cod_data_source_block           Al5O12Y3
_cod_database_code               1529037
loop_
_symmetry_equiv_pos_as_xyz
x,y,z
-y+1/4,x+3/4,z+1/4
-x+1/2,-y,z+1/2
y+1/4,-x+1/4,z+3/4
x,-y,-z+1/2
y+1/4,x+3/4,-z+3/4
-x+1/2,y,-z
-y+1/4,-x+1/4,-z+1/4
z,x,y
-x+1/4,z+3/4,y+1/4
-z+1/2,-x,y+1/2
x+1/4,-z+1/4,y+3/4
z,-x,-y+1/2
x+1/4,z+3/4,-y+3/4
-z+1/2,x,-y
-x+1/4,-z+1/4,-y+1/4
y,z,x
y+1/2,-z+1/2,-x
z+3/4,y+1/4,-x+1/4
-y,z+1/2,-x+1/2
-z+1/4,-y+1/4,-x+1/4
-y+1/2,-z,x+1/2
z+3/4,-y+3/4,x+1/4
-z+3/4,y+1/4,x+3/4
-x,-y,-z
y-1/4,-x-3/4,-z-1/4
x-1/2,y,-z-1/2
-y-1/4,x-1/4,-z-3/4
-x,y,z-1/2
-y-1/4,-x-3/4,z-3/4
x-1/2,-y,z
y-1/4,x-1/4,z-1/4
-z,-x,-y
x-1/4,-z-3/4,-y-1/4
z-1/2,x,-y-1/2
-x-1/4,z-1/4,-y-3/4
-z,x,y-1/2
-x-1/4,-z-3/4,y-3/4
z-1/2,-x,y
x-1/4,z-1/4,y-1/4
-y,-z,-x
-y-1/2,z-1/2,x
-z-3/4,-y-1/4,x-1/4
y,-z-1/2,x-1/2
z-1/4,y-1/4,x-1/4
y-1/2,z,-x-1/2
-z-3/4,y-3/4,-x-1/4
z-3/4,-y-1/4,-x-3/4
x+1/2,y+1/2,z+1/2
-y+3/4,x+5/4,z+3/4
-x+1,-y+1/2,z+1
y+3/4,-x+3/4,z+5/4
x+1/2,-y+1/2,-z+1
y+3/4,x+5/4,-z+5/4
-x+1,y+1/2,-z+1/2
-y+3/4,-x+3/4,-z+3/4
z+1/2,x+1/2,y+1/2
-x+3/4,z+5/4,y+3/4
-z+1,-x+1/2,y+1
x+3/4,-z+3/4,y+5/4
z+1/2,-x+1/2,-y+1
x+3/4,z+5/4,-y+5/4
-z+1,x+1/2,-y+1/2
-x+3/4,-z+3/4,-y+3/4
y+1/2,z+1/2,x+1/2
y+1,-z+1,-x+1/2
z+5/4,y+3/4,-x+3/4
-y+1/2,z+1,-x+1
-z+3/4,-y+3/4,-x+3/4
-y+1,-z+1/2,x+1
z+5/4,-y+5/4,x+3/4
-z+5/4,y+3/4,x+5/4
-x+1/2,-y+1/2,-z+1/2
y+1/4,-x-1/4,-z+1/4
x,y+1/2,-z
-y+1/4,x+1/4,-z-1/4
-x+1/2,y+1/2,z
-y+1/4,-x-1/4,z-1/4
x,-y+1/2,z+1/2
y+1/4,x+1/4,z+1/4
-z+1/2,-x+1/2,-y+1/2
x+1/4,-z-1/4,-y+1/4
z,x+1/2,-y
-x+1/4,z+1/4,-y-1/4
-z+1/2,x+1/2,y
-x+1/4,-z-1/4,y-1/4
z,-x+1/2,y+1/2
x+1/4,z+1/4,y+1/4
-y+1/2,-z+1/2,-x+1/2
-y,z,x+1/2
-z-1/4,-y+1/4,x+1/4
y+1/2,-z,x
z+1/4,y+1/4,x+1/4
y,z+1/2,-x
-z-1/4,y-1/4,-x+1/4
z-1/4,-y+1/4,-x-1/4
loop_
_atom_site_label
_atom_site_type_symbol
_atom_site_fract_x
_atom_site_fract_y
_atom_site_fract_z
_atom_site_occupancy
_atom_site_U_iso_or_equiv
O1 O-2 0.04 0.055 0.64 1 0.0
Y1 Y+3 0.25 0.125 0 1 0.0
Al2 Al+3 0.25 0.375 0 1 0.0
Al1 Al+3 0 0 0 1 0.0
