#------------------------------------------------------------------------------
#$Date: 2018-01-23 14:43:58 +0200 (Tue, 23 Jan 2018) $
#$Revision: 205493 $
#$URL: file:///home/coder/svn-repositories/cod/cif/1/52/94/1529492.cif $
#------------------------------------------------------------------------------
#
# This file is available in the Crystallography Open Database (COD),
# http://www.crystallography.net/
#
# All data on this site have been placed in the public domain by the
# contributors.
#
data_1529492
loop_
_publ_author_name
'Jun Zhou'
'Zhiguo Xia'
'Mingyue Chen'
'Maxim S. Molokeev'
'Quanlin Liu'
_publ_section_title
;
 New Insight into Phase Formation of MxMg2Al4+xSi5-xO18:Eu2+ Solid
 Solution Phosphors and Its Luminescence Properties
;
_journal_issue                   0
_journal_name_full               'Scientific Reports'
_journal_page_first              12149
_journal_page_last               12153
_journal_paper_doi               10.1038/srep12149
_journal_volume                  5
_journal_year                    2015
_chemical_formula_moiety         'Al4 Mg2 O18 Si5'
_chemical_formula_sum            'Al4 Mg2 O18 Si5'
_chemical_formula_weight         584.99
_space_group_IT_number           192
_symmetry_cell_setting           hexagonal
_symmetry_space_group_name_Hall  '-P 6 2c'
_symmetry_space_group_name_H-M   'P 6/m c c'
_cell_angle_alpha                90
_cell_angle_beta                 90
_cell_angle_gamma                120
_cell_formula_units_Z            2
_cell_length_a                   9.78698(45)
_cell_length_b                   9.78698(45)
_cell_length_c                   9.33739(48)
_cell_measurement_temperature    300
_cell_volume                     774.56(6)
_diffrn_ambient_temperature      300
_diffrn_measurement_device_type
;
D8 ADVANCE Bruker
;
_diffrn_radiation_monochromator  none
_diffrn_radiation_probe          x-ray
_diffrn_radiation_type
;
 Cu K\a~1~~2~
;
_exptl_absorpt_coefficient_mu    8.372
_exptl_crystal_density_diffrn    2.508
_pd_char_colour
;
colourless
;
_pd_meas_2theta_range_inc        0.02
_pd_meas_2theta_range_max        120.007591
_pd_meas_2theta_range_min        5.0020266
_pd_meas_scan_method             step
_pd_proc_ls_pref_orient_corr
;
Anisotropic model of PO. Spherical harmonics 6 ordrer.
 Jarvinen (1993). Application of symmetrized harmonics expansion to correction
of the preferred orientation effect. - J. Appl. Cryst. 26 p525-531.
;
_pd_proc_ls_profile_function     PearsonVII
_pd_proc_ls_prof_R_factor        7.275
_pd_proc_ls_prof_wR_expected     2.831
_pd_proc_ls_prof_wR_factor       9.989
_pd_proc_number_of_points        5750.27822
_pd_spec_mount_mode              reflection
_refine_ls_goodness_of_fit_all   3.529
_refine_ls_R_I_factor            2.38
_refine_ls_shift/su_max          0.01000
_cod_data_source_file            Mg2Al4Si5O18_Eu.cif
_cod_data_source_block           a
_cod_original_cell_volume        774.557(81)
_cod_original_sg_symbol_Hall
;
-P 6 2c
;
_cod_original_sg_symbol_H-M      P6/mcc
_cod_original_formula_sum
;
Al4 Mg2 O18 Si5
;
_cod_database_code               1529492
_cod_database_fobs_code          1529492
loop_
_symmetry_equiv_pos_as_xyz
'x, y, z'
'-x, -x+y, -z+1/2'
'-x, -x+y, z+1/2'
'-x, -y, -z'
'-x, -y, z'
'-x+y, -x, -z'
'-x+y, -x, z'
'-x+y, y, -z+1/2'
'-x+y, y, z+1/2'
'-y, -x, -z+1/2'
'-y, -x, z+1/2'
'-y, x-y, -z'
'-y, x-y, z'
'y, -x+y, -z'
'y, -x+y, z'
'y, x, -z+1/2'
'y, x, z+1/2'
'x-y, -y, -z+1/2'
'x-y, -y, z+1/2'
'x-y, x, -z'
'x-y, x, z'
'x, y, -z'
'x, x-y, -z+1/2'
'x, x-y, z+1/2'
loop_
_atom_site_label
_atom_site_type_symbol
_atom_site_fract_x
_atom_site_fract_y
_atom_site_fract_z
_atom_site_occupancy
_atom_site_B_iso_or_equiv
Mg Mg 0.3333333 0.6666667 0.25 1 1.07(15)
Si1 Si 0.5 0.5 0.25 0.5555556 1.05(12)
Al1 Al 0.5 0.5 0.25 0.4444444 1.05(12)
Si2 Si 0.37107(24) 0.26771(28) 0 0.5555556 0.92(12)
Al2 Al 0.37107(24) 0.26771(28) 0 0.4444444 0.92(12)
O1 O 0.48327(38) 0.34855(36) 0.14551(25) 1 1.17(12)
O2 O 0.22385(52) 0.30497(44) 0 1 1.17(12)
loop_
_diffrn_radiation_wavelength
_diffrn_radiation_wavelength_wt
1.5406 1.0000
1.5443 0.5000
loop_
_geom_angle_atom_site_label_1
_geom_angle_atom_site_label_2
_geom_angle_atom_site_label_3
_geom_angle
_geom_angle_site_symmetry_1
_geom_angle_site_symmetry_3
O1 Mg O1 85.252(95) 2_665 5_665
O1 Mg O1 74.34(13) 2_665 15_565
O1 Mg O1 100.37(11) 2_665 16_555
O1 Si1 O1 110.54(16) 1_555 5_665
O1 Si1 O1 96.37(12) 1_555 10_665
O1 Si1 O1 122.56(19) 1_555 16_555
O1 Al1 O1 110.54(16) 1_555 5_665
O1 Al1 O1 96.37(12) 1_555 10_665
O1 Al1 O1 122.56(19) 1_555 16_555
O1 Si2 O1 108.32(16) 1_555 22_555
O1 Si2 O2 109.47(14) 1_555 1_555
O1 Si2 O2 109.49(18) 1_555 14_555
O2 Si2 O2 110.56(23) 1_555 14_555
O1 Al2 O1 108.32(16) 1_555 22_555
O1 Al2 O2 109.47(14) 1_555 1_555
O1 Al2 O2 109.49(18) 1_555 14_555
O2 Al2 O2 110.56(23) 1_555 14_555
Si1 O1 Mg 94.64(10) 1_555 2_655
Si1 O1 Si2 128.82(21) 1_555 1_555
Si1 O1 Al2 128.82(21) 1_555 1_555
Al1 O1 Mg 94.64(10) 1_555 2_655
Al1 O1 Si2 128.82(21) 1_555 1_555
Al1 O1 Al2 128.82(21) 1_555 1_555
Si2 O1 Mg 136.08(22) 1_555 2_655
Al2 O1 Mg 136.08(22) 1_555 2_655
loop_
_geom_bond_atom_site_label_1
_geom_bond_atom_site_label_2
_geom_bond_distance
_geom_bond_site_symmetry_2
Mg O1 2.1126(28) 2_665
Si1 O1 1.7126(27) .
Al1 O1 1.7126(27) .
Si2 O1 1.6760(26) .
Si2 O2 1.6536(32) .
Si2 O2 1.6037(44) 14_555
Al2 O1 1.6760(26) .
Al2 O2 1.6536(32) .
Al2 O2 1.6037(44) 14_555
