#------------------------------------------------------------------------------
#$Date: 2015-07-17 16:37:25 +0300 (Fri, 17 Jul 2015) $
#$Revision: 152200 $
#$URL: svn://www.crystallography.net/cod/cif/1/52/91/1529137.cif $
#------------------------------------------------------------------------------
#
# This file is available in the Crystallography Open Database (COD),
# http://www.crystallography.net/
#
# All data on this site have been placed in the public domain by the
# contributors.
#
data_1529137
loop_
_publ_author_name
'Jha, P.'
'Ganguli, A.K.'
_publ_section_title
;
 Complex rare-earth titanates with the perovskite structure: Rietveld
 studies and dielectric properties
;
_journal_name_full               'Solid State Sciences'
_journal_page_first              663
_journal_page_last               671
_journal_volume                  6
_journal_year                    2004
_chemical_formula_sum            'Ba0.37 Ca0.31 Cd0.025 La0.35 O2.775 Ti0.81'
_chemical_name_systematic
'(La0.35 Ba0.37 Ca0.31) ((Cd0.025 Ti0.810) O2.775)'
_space_group_IT_number           221
_symmetry_space_group_name_Hall  '-P 4 2 3'
_symmetry_space_group_name_H-M   'P m -3 m'
_cell_angle_alpha                90
_cell_angle_beta                 90
_cell_angle_gamma                90
_cell_formula_units_Z            1
_cell_length_a                   4.0119
_cell_length_b                   4.0119
_cell_length_c                   4.0119
_cell_volume                     64.573
_citation_journal_id_ASTM        SSSCFJ
_cod_data_source_file            Jha_SSSCFJ_2004_95.cif
_cod_data_source_block           Ba0.37Ca0.31Cd0.025La0.35O2.775Ti0.81
_cod_original_cell_volume        64.5729
_cod_database_code               1529137
loop_
_symmetry_equiv_pos_as_xyz
x,y,z
-y,x,z
-x,-y,z
y,-x,z
x,-y,-z
y,x,-z
-x,y,-z
-y,-x,-z
z,x,y
-x,z,y
-z,-x,y
x,-z,y
z,-x,-y
x,z,-y
-z,x,-y
-x,-z,-y
y,z,x
y,-z,-x
z,y,-x
-y,z,-x
-z,-y,-x
-y,-z,x
z,-y,x
-z,y,x
-x,-y,-z
y,-x,-z
x,y,-z
-y,x,-z
-x,y,z
-y,-x,z
x,-y,z
y,x,z
-z,-x,-y
x,-z,-y
z,x,-y
-x,z,-y
-z,x,y
-x,-z,y
z,-x,y
x,z,y
-y,-z,-x
-y,z,x
-z,-y,x
y,-z,x
z,y,x
y,z,-x
-z,y,-x
z,-y,-x
loop_
_atom_site_label
_atom_site_type_symbol
_atom_site_fract_x
_atom_site_fract_y
_atom_site_fract_z
_atom_site_occupancy
_atom_site_U_iso_or_equiv
La1 La+3 0 0 0 0.35 0.0
Cd1 Cd+2 0.5 0.5 0.5 0.025 0.0
Ca1 Ca+2 0 0 0 0.31 0.0
Ti1 Ti+4 0.5 0.5 0.5 0.81 0.0
Ba1 Ba+2 0 0 0 0.37 0.0
O1 O-2 0 0.5 0.5 0.925 0.0
