#------------------------------------------------------------------------------
#$Date: 2018-01-23 14:43:58 +0200 (Tue, 23 Jan 2018) $
#$Revision: 205493 $
#$URL: file:///home/coder/svn-repositories/cod/cif/1/52/94/1529493.cif $
#------------------------------------------------------------------------------
#
# This file is available in the Crystallography Open Database (COD),
# http://www.crystallography.net/
#
# All data on this site have been placed in the public domain by the
# contributors.
#
data_1529493
loop_
_publ_author_name
'Jun Zhou'
'Zhiguo Xia'
'Mingyue Chen'
'Maxim S. Molokeev'
'Quanlin Liu'
_publ_section_title
;
 New Insight into Phase Formation of MxMg2Al4+xSi5-xO18:Eu2+ Solid
 Solution Phosphors and Its Luminescence Properties
;
_journal_issue                   0
_journal_name_full               'Scientific Reports'
_journal_page_first              12149
_journal_page_last               12153
_journal_paper_doi               10.1038/srep12149
_journal_volume                  5
_journal_year                    2015
_chemical_formula_moiety         'Al8.33 Mg4 O36 Si9.67, 0.085(K4)'
_chemical_formula_sum            'Al8.33 K0.34 Mg4 O36 Si9.67'
_chemical_formula_weight         1182.9
_space_group_IT_number           192
_symmetry_cell_setting           hexagonal
_symmetry_space_group_name_Hall  '-P 6 2c'
_symmetry_space_group_name_H-M   'P 6/m c c'
_cell_angle_alpha                90
_cell_angle_beta                 90
_cell_angle_gamma                120
_cell_formula_units_Z            1
_cell_length_a                   9.79306(41)
_cell_length_b                   9.79306(41)
_cell_length_c                   9.33885(46)
_cell_measurement_temperature    300
_cell_volume                     775.64(6)
_diffrn_ambient_temperature      300
_diffrn_measurement_device_type
;
D8 ADVANCE Bruker
;
_diffrn_radiation_monochromator  none
_diffrn_radiation_probe          x-ray
_diffrn_radiation_type
;
 Cu K\a~1~~2~
;
_exptl_absorpt_coefficient_mu    8.74
_exptl_crystal_density_diffrn    2.533
_pd_char_colour
;
colourless
;
_pd_meas_2theta_range_inc        0.02
_pd_meas_2theta_range_max        120.007591
_pd_meas_2theta_range_min        5.0020266
_pd_meas_scan_method             step
_pd_proc_ls_pref_orient_corr
;
Anisotropic model of PO. Spherical harmonics 8 ordrer.
 Jarvinen (1993). Application of symmetrized harmonics expansion to correction
of the preferred orientation effect. - J. Appl. Cryst. 26 p525-531.
;
_pd_proc_ls_profile_function     PearsonVII
_pd_proc_ls_prof_R_factor        5.373
_pd_proc_ls_prof_wR_expected     2.774
_pd_proc_ls_prof_wR_factor       7.354
_pd_proc_number_of_points        5750.27822
_pd_spec_mount_mode              reflection
_refine_ls_goodness_of_fit_all   2.651
_refine_ls_R_I_factor            1.63
_refine_ls_shift/su_max          0.01000
_cod_data_source_file            K0p17Mg2Al4p17Si4p83O18_Eu.cif
_cod_data_source_block           a
_cod_original_cell_volume        775.640(75)
_cod_original_sg_symbol_Hall
;
-P 6 2c
;
_cod_original_sg_symbol_H-M      P6/mcc
_cod_original_formula_sum
;
Al8.33 K0.34 Mg4 O36 Si9.67
;
_cod_database_code               1529493
_cod_database_fobs_code          1529493
loop_
_symmetry_equiv_pos_as_xyz
'x, y, z'
'-x, -x+y, -z+1/2'
'-x, -x+y, z+1/2'
'-x, -y, -z'
'-x, -y, z'
'-x+y, -x, -z'
'-x+y, -x, z'
'-x+y, y, -z+1/2'
'-x+y, y, z+1/2'
'-y, -x, -z+1/2'
'-y, -x, z+1/2'
'-y, x-y, -z'
'-y, x-y, z'
'y, -x+y, -z'
'y, -x+y, z'
'y, x, -z+1/2'
'y, x, z+1/2'
'x-y, -y, -z+1/2'
'x-y, -y, z+1/2'
'x-y, x, -z'
'x-y, x, z'
'x, y, -z'
'x, x-y, -z+1/2'
'x, x-y, z+1/2'
loop_
_atom_site_label
_atom_site_type_symbol
_atom_site_fract_x
_atom_site_fract_y
_atom_site_fract_z
_atom_site_occupancy
_atom_site_B_iso_or_equiv
Mg Mg 0.3333333 0.6666667 0.25 1 1.18(20)
Si1 Si 0.5 0.5 0.25 0.5366667 1.01(17)
Al1 Al 0.5 0.5 0.25 0.4633333 1.01(17)
Si2 Si 0.37108(25) 0.26739(32) 0 0.5366667 0.84(17)
Al2 Al 0.37108(25) 0.26739(32) 0 0.4633333 0.84(17)
O1 O 0.48108(40) 0.34671(38) 0.14547(29) 1 1.12(17)
O2 O 0.22612(57) 0.30779(49) 0 1 1.12(17)
K K 0 0 0.3558(34) 0.085 5.0(12)
loop_
_diffrn_radiation_wavelength
_diffrn_radiation_wavelength_wt
1.5406 1.0000
1.5443 0.5000
loop_
_geom_angle_atom_site_label_1
_geom_angle_atom_site_label_2
_geom_angle_atom_site_label_3
_geom_angle
_geom_angle_site_symmetry_1
_geom_angle_site_symmetry_3
O1 Mg O1 84.36(10) 2_665 5_665
O1 Mg O1 74.79(13) 2_665 15_565
O1 Mg O1 100.55(12) 2_665 16_555
O1 Si1 O1 111(17) 1_555 5_665
O1 Si1 O1 97.08(13) 1_555 10_665
O1 Si1 O1 121.33(20) 1_555 16_555
O1 Al1 O1 111(17) 1_555 5_665
O1 Al1 O1 97.08(13) 1_555 10_665
O1 Al1 O1 121.33(20) 1_555 16_555
O1 Si2 O1 109.35(18) 1_555 22_555
O1 Si2 O2 108.72(15) 1_555 1_555
O1 Si2 O2 108.82(19) 1_555 14_555
O2 Si2 O2 112.38(26) 1_555 14_555
O1 Al2 O1 109.35(18) 1_555 22_555
O1 Al2 O2 108.72(15) 1_555 1_555
O1 Al2 O2 108.82(19) 1_555 14_555
O2 Al2 O2 112.38(26) 1_555 14_555
loop_
_geom_bond_atom_site_label_1
_geom_bond_atom_site_label_2
_geom_bond_distance
_geom_bond_site_symmetry_2
Mg O1 2.1240(30) 2_665
Si1 O1 1.7212(30) .
Al1 O1 1.7212(30) .
Si2 O1 1.6651(29) .
Si2 O2 1.6533(34) .
Si2 O2 1.6015(49) 14_555
Al2 O1 1.6651(29) .
Al2 O2 1.6533(34) .
Al2 O2 1.6015(49) 14_555
