#------------------------------------------------------------------------------
#$Date: 2015-07-17 16:35:42 +0300 (Fri, 17 Jul 2015) $
#$Revision: 152191 $
#$URL: svn://www.crystallography.net/cod/cif/1/52/91/1529128.cif $
#------------------------------------------------------------------------------
#
# This file is available in the Crystallography Open Database (COD),
# http://www.crystallography.net/
#
# All data on this site have been placed in the public domain by the
# contributors.
#
data_1529128
loop_
_publ_author_name
'Guo, X.'
'Greenbaum, S.'
'Scrosati, B.'
'Ronci, F.'
_publ_section_title
;
 X-ray diffraction and (7)Li nuclear magnetic resonance studies of iron-
 and cobalt-substituted Li Ni O2 prepared from inorganic transition metal
 nitrates
;
_journal_name_full               'Solid State Ionics'
_journal_page_first              37
_journal_page_last               49
_journal_volume                  168
_journal_year                    2004
_chemical_formula_sum            'Co0.1062 Li0.938 Ni0.9558 O2'
_chemical_name_systematic
'(Li0.938 Ni0.0558 Co0.0062) ((Ni0.9 Co0.1) O2)'
_space_group_IT_number           166
_symmetry_space_group_name_Hall  '-R 3 2"'
_symmetry_space_group_name_H-M   'R -3 m :H'
_cell_angle_alpha                90
_cell_angle_beta                 90
_cell_angle_gamma                120
_cell_formula_units_Z            3
_cell_length_a                   2.8708
_cell_length_b                   2.8708
_cell_length_c                   14.171
_cell_volume                     101.143
_citation_journal_id_ASTM        SSIOD3
_cod_data_source_file            Guo_SSIOD3_2004_15.cif
_cod_data_source_block           Co0.1062Li0.938Ni0.9558O2
_cod_original_cell_volume        101.1433
_cod_database_code               1529128
loop_
_symmetry_equiv_pos_as_xyz
x,y,z
-y,x-y,z
-x+y,-x,z
y,x,-z
-x,-x+y,-z
x-y,-y,-z
-x,-y,-z
y,-x+y,-z
x-y,x,-z
-y,-x,z
x,x-y,z
-x+y,y,z
x+2/3,y+1/3,z+1/3
-y+2/3,x-y+1/3,z+1/3
-x+y+2/3,-x+1/3,z+1/3
y+2/3,x+1/3,-z+1/3
-x+2/3,-x+y+1/3,-z+1/3
x-y+2/3,-y+1/3,-z+1/3
-x+2/3,-y+1/3,-z+1/3
y+2/3,-x+y+1/3,-z+1/3
x-y+2/3,x+1/3,-z+1/3
-y+2/3,-x+1/3,z+1/3
x+2/3,x-y+1/3,z+1/3
-x+y+2/3,y+1/3,z+1/3
x+1/3,y+2/3,z+2/3
-y+1/3,x-y+2/3,z+2/3
-x+y+1/3,-x+2/3,z+2/3
y+1/3,x+2/3,-z+2/3
-x+1/3,-x+y+2/3,-z+2/3
x-y+1/3,-y+2/3,-z+2/3
-x+1/3,-y+2/3,-z+2/3
y+1/3,-x+y+2/3,-z+2/3
x-y+1/3,x+2/3,-z+2/3
-y+1/3,-x+2/3,z+2/3
x+1/3,x-y+2/3,z+2/3
-x+y+1/3,y+2/3,z+2/3
loop_
_atom_site_label
_atom_site_type_symbol
_atom_site_fract_x
_atom_site_fract_y
_atom_site_fract_z
_atom_site_occupancy
_atom_site_U_iso_or_equiv
Co1 Co+2 0 0 0.5 0.0062 0.0
Co2 Co+2 0 0 0 0.1 0.0
Ni1 Ni+2 0 0 0.5 0.0558 0.0
Ni2 Ni+2 0 0 0 0.9 0.0
Li1 Li+1 0 0 0.5 0.938 0.0
O1 O-2 0 0 0.2593 1 0.0
