#------------------------------------------------------------------------------
#$Date: 2015-09-12 18:23:58 +0300 (Sat, 12 Sep 2015) $
#$Revision: 156071 $
#$URL: svn://www.crystallography.net/cod/cif/1/53/08/1530854.cif $
#------------------------------------------------------------------------------
#
# This file is available in the Crystallography Open Database (COD),
# http://www.crystallography.net/
#
# All data on this site have been placed in the public domain by the
# contributors.
#
data_1530854
loop_
_publ_author_name
'Svensson, G.'
_publ_section_title
;
 Ba2 Nb5 O9 - An intergrowth of Ba Nb O3 (Perovskite) and Nb O
;
_journal_name_full               'Materials Research Bulletin'
_journal_page_first              437
_journal_page_last               446
_journal_volume                  23
_journal_year                    1988
_chemical_formula_sum            'Ba2 Nb5 O9'
_chemical_name_systematic        'Ba2 (Nb5 O9)'
_space_group_IT_number           123
_symmetry_space_group_name_Hall  '-P 4 2'
_symmetry_space_group_name_H-M   'P 4/m m m'
_cell_angle_alpha                90
_cell_angle_beta                 90
_cell_angle_gamma                90
_cell_formula_units_Z            1
_cell_length_a                   4.1696
_cell_length_b                   4.1696
_cell_length_c                   12.228
_cell_volume                     212.591
_citation_journal_id_ASTM        MRBUAC
_cod_data_source_file            Svensson_MRBUAC_1988_1705.cif
_cod_data_source_block           Ba2Nb5O9
_cod_original_cell_volume        212.5907
_cod_database_code               1530854
loop_
_symmetry_equiv_pos_as_xyz
x,y,z
-y,x,z
-x,-y,z
y,-x,z
x,-y,-z
y,x,-z
-x,y,-z
-y,-x,-z
-x,-y,-z
y,-x,-z
x,y,-z
-y,x,-z
-x,y,z
-y,-x,z
x,-y,z
y,x,z
loop_
_atom_site_label
_atom_site_type_symbol
_atom_site_fract_x
_atom_site_fract_y
_atom_site_fract_z
_atom_site_occupancy
_atom_site_U_iso_or_equiv
Nb1 Nb+2 0 0.5 0.5 1 0.0
O4 O-2 0 0 0.5 1 0.0
O2 O-2 0.5 0.5 0.153 1 0.0
Ba1 Ba+2 0 0 0.1636 1 0.0
Nb2 Nb+2 0.5 0.5 0.3296 1 0.0
Nb3 Nb+4 0.5 0.5 0 1 0.0
O1 O-2 0.5 0 0 1 0.0
O3 O-2 0.5 0 0.306 1 0.0
