#------------------------------------------------------------------------------
#$Date: 2018-09-27 07:13:35 +0300 (Thu, 27 Sep 2018) $
#$Revision: 211196 $
#$URL: file:///home/coder/svn-repositories/cod/cif/1/53/02/1530227.cif $
#------------------------------------------------------------------------------
#
# This file is available in the Crystallography Open Database (COD),
# http://www.crystallography.net/
#
# All data on this site have been placed in the public domain by the
# contributors.
#
data_1530227
loop_
_publ_author_name
'Kumada, N.'
'Muramatu, S.'
'Kikkawa, S.'
'Muto, F.'
'Kinomura, N.'
'Koizumi, M.'
_publ_section_title
;
 Topochemical reactions of Lix Nb O2
;
_journal_name_full               'Journal of Solid State Chemistry'
_journal_page_first              33
_journal_page_last               39
_journal_volume                  73
_journal_year                    1988
_chemical_formula_sum            'Li0.58 Nb O2'
_space_group_IT_number           194
_symmetry_space_group_name_Hall  '-P 6c 2c'
_symmetry_space_group_name_H-M   'P 63/m m c'
_cell_angle_alpha                90
_cell_angle_beta                 90
_cell_angle_gamma                120
_cell_formula_units_Z            2
_cell_length_a                   2.912
_cell_length_b                   2.912
_cell_length_c                   10.46
_cell_volume                     76.815
_citation_journal_id_ASTM        JSSCBI
_cod_data_source_file            Kumada_JSSCBI_1988_1601.cif
_cod_data_source_block           Li0.58Nb1O2
_cod_original_cell_volume        76.81483
_cod_original_formula_sum        'Li0.58 Nb1 O2'
_cod_database_code               1530227
loop_
_symmetry_equiv_pos_as_xyz
x,y,z
x-y,x,z+1/2
-y,x-y,z
-x,-y,z+1/2
-x+y,-x,z
y,-x+y,z+1/2
-y,-x,-z+1/2
x-y,-y,-z
x,x-y,-z+1/2
y,x,-z
-x+y,y,-z+1/2
-x,-x+y,-z
-x,-y,-z
-x+y,-x,-z-1/2
y,-x+y,-z
x,y,-z-1/2
x-y,x,-z
-y,x-y,-z-1/2
y,x,z-1/2
-x+y,y,z
-x,-x+y,z-1/2
-y,-x,z
x-y,-y,z-1/2
x,x-y,z
loop_
_atom_site_label
_atom_site_type_symbol
_atom_site_fract_x
_atom_site_fract_y
_atom_site_fract_z
_atom_site_occupancy
_atom_site_U_iso_or_equiv
Li1 Li+1 0 0 0 0.58 0.0
Nb1 Nb+3 0.6667 0.3333 0.25 1 0.0
O1 O-2 0.3333 0.6667 0.133 1 0.0
