#------------------------------------------------------------------------------
#$Date: 2016-02-13 21:28:24 +0200 (Sat, 13 Feb 2016) $
#$Revision: 176429 $
#$URL: svn://www.crystallography.net/cod/cif/1/53/01/1530164.cif $
#------------------------------------------------------------------------------
#
# This file is available in the Crystallography Open Database (COD),
# http://www.crystallography.net/
#
# All data on this site have been placed in the public domain by the
# contributors.
#
data_1530164
loop_
_publ_author_name
'Kim, J.S.'
'Swinnea, J.S.'
'Steinfink, H.'
_publ_section_title
;
 Cation and Oxygen Disorder in the Structures Tl Sr2 Cu O5 And (Pb.63
 Cu.37) Sr2 Co O5
;
_journal_name_full               'Journal of the Less-Common Metals'
_journal_page_first              347
_journal_page_last               355
_journal_volume                  156
_journal_year                    1989
_chemical_formula_sum            'Cu O5.24 Sr2 Tl'
_chemical_name_systematic        'Tl Sr2 Cu O5.24'
_space_group_IT_number           123
_symmetry_space_group_name_Hall  '-P 4 2'
_symmetry_space_group_name_H-M   'P 4/m m m'
_cell_angle_alpha                90
_cell_angle_beta                 90
_cell_angle_gamma                90
_cell_formula_units_Z            1
_cell_length_a                   3.7344
_cell_length_b                   3.7344
_cell_length_c                   9.007
_cell_volume                     125.609
_citation_journal_id_ASTM        JCOMAH
_cod_data_source_file            Kim_JCOMAH_1989_1906.cif
_cod_data_source_block           Cu1O5.24Sr2Tl1
_cod_original_cell_volume        125.6093
_cod_original_formula_sum        'Cu1 O5.24 Sr2 Tl1'
_cod_database_code               1530164
loop_
_symmetry_equiv_pos_as_xyz
x,y,z
-y,x,z
-x,-y,z
y,-x,z
x,-y,-z
y,x,-z
-x,y,-z
-y,-x,-z
-x,-y,-z
y,-x,-z
x,y,-z
-y,x,-z
-x,y,z
-y,-x,z
x,-y,z
y,x,z
loop_
_atom_site_label
_atom_site_type_symbol
_atom_site_fract_x
_atom_site_fract_y
_atom_site_fract_z
_atom_site_occupancy
_atom_site_U_iso_or_equiv
O3 O-2 0.424 0.424 0 0.31 0.0
Tl1 Tl+3 0 0 0 1 0.0
O1 O-2 0 0 0.2236 1 0.0
Cu1 Cu+3 0 0 0.5 1 0.0
O2 O-2 0.5 0 0.5 1 0.0
Sr1 Sr+2 0.5 0.5 0.295 1 0.0
