#------------------------------------------------------------------------------
#$Date: 2015-09-09 11:35:03 +0300 (Wed, 09 Sep 2015) $
#$Revision: 155526 $
#$URL: svn://www.crystallography.net/cod/cif/1/53/04/1530426.cif $
#------------------------------------------------------------------------------
#
# This file is available in the Crystallography Open Database (COD),
# http://www.crystallography.net/
#
# All data on this site have been placed in the public domain by the
# contributors.
#
data_1530426
loop_
_publ_author_name
'Mill', B.V.'
'Belokoneva, E.L.'
'Belov, N.V.'
'Simonov, M.A.'
_publ_section_title
;
 Refined crystal structures of the scandium garnets Ca3 Sc Si3 O12, Ca3
 Sc2 Ge3 O12 and Cd3 Sc2 Ge3 O12
;
_journal_name_full
'Zhurnal Strukturnoi Khimii (Issue-No. from 1981)'
_journal_page_first              399
_journal_page_last               402
_journal_volume                  18
_journal_year                    1977
_chemical_formula_sum            'Cd3 Ge3 O12 Sc2'
_chemical_name_systematic        'Cd3 Sc2 (Ge O4)3'
_space_group_IT_number           230
_symmetry_space_group_name_Hall  '-I 4bd 2c 3'
_symmetry_space_group_name_H-M   'I a -3 d'
_cell_angle_alpha                90
_cell_angle_beta                 90
_cell_angle_gamma                90
_cell_formula_units_Z            8
_cell_length_a                   12.458
_cell_length_b                   12.458
_cell_length_c                   12.458
_cell_volume                     1933.504
_citation_journal_id_ASTM        ZSTKAI
_cod_data_source_file            Mill_ZSTKAI_1977_1362.cif
_cod_data_source_block           Cd3Ge3O12Sc2
_cod_database_code               1530426
loop_
_symmetry_equiv_pos_as_xyz
x,y,z
-y+1/4,x+3/4,z+1/4
-x+1/2,-y,z+1/2
y+1/4,-x+1/4,z+3/4
x,-y,-z+1/2
y+1/4,x+3/4,-z+3/4
-x+1/2,y,-z
-y+1/4,-x+1/4,-z+1/4
z,x,y
-x+1/4,z+3/4,y+1/4
-z+1/2,-x,y+1/2
x+1/4,-z+1/4,y+3/4
z,-x,-y+1/2
x+1/4,z+3/4,-y+3/4
-z+1/2,x,-y
-x+1/4,-z+1/4,-y+1/4
y,z,x
y+1/2,-z+1/2,-x
z+3/4,y+1/4,-x+1/4
-y,z+1/2,-x+1/2
-z+1/4,-y+1/4,-x+1/4
-y+1/2,-z,x+1/2
z+3/4,-y+3/4,x+1/4
-z+3/4,y+1/4,x+3/4
-x,-y,-z
y-1/4,-x-3/4,-z-1/4
x-1/2,y,-z-1/2
-y-1/4,x-1/4,-z-3/4
-x,y,z-1/2
-y-1/4,-x-3/4,z-3/4
x-1/2,-y,z
y-1/4,x-1/4,z-1/4
-z,-x,-y
x-1/4,-z-3/4,-y-1/4
z-1/2,x,-y-1/2
-x-1/4,z-1/4,-y-3/4
-z,x,y-1/2
-x-1/4,-z-3/4,y-3/4
z-1/2,-x,y
x-1/4,z-1/4,y-1/4
-y,-z,-x
-y-1/2,z-1/2,x
-z-3/4,-y-1/4,x-1/4
y,-z-1/2,x-1/2
z-1/4,y-1/4,x-1/4
y-1/2,z,-x-1/2
-z-3/4,y-3/4,-x-1/4
z-3/4,-y-1/4,-x-3/4
x+1/2,y+1/2,z+1/2
-y+3/4,x+5/4,z+3/4
-x+1,-y+1/2,z+1
y+3/4,-x+3/4,z+5/4
x+1/2,-y+1/2,-z+1
y+3/4,x+5/4,-z+5/4
-x+1,y+1/2,-z+1/2
-y+3/4,-x+3/4,-z+3/4
z+1/2,x+1/2,y+1/2
-x+3/4,z+5/4,y+3/4
-z+1,-x+1/2,y+1
x+3/4,-z+3/4,y+5/4
z+1/2,-x+1/2,-y+1
x+3/4,z+5/4,-y+5/4
-z+1,x+1/2,-y+1/2
-x+3/4,-z+3/4,-y+3/4
y+1/2,z+1/2,x+1/2
y+1,-z+1,-x+1/2
z+5/4,y+3/4,-x+3/4
-y+1/2,z+1,-x+1
-z+3/4,-y+3/4,-x+3/4
-y+1,-z+1/2,x+1
z+5/4,-y+5/4,x+3/4
-z+5/4,y+3/4,x+5/4
-x+1/2,-y+1/2,-z+1/2
y+1/4,-x-1/4,-z+1/4
x,y+1/2,-z
-y+1/4,x+1/4,-z-1/4
-x+1/2,y+1/2,z
-y+1/4,-x-1/4,z-1/4
x,-y+1/2,z+1/2
y+1/4,x+1/4,z+1/4
-z+1/2,-x+1/2,-y+1/2
x+1/4,-z-1/4,-y+1/4
z,x+1/2,-y
-x+1/4,z+1/4,-y-1/4
-z+1/2,x+1/2,y
-x+1/4,-z-1/4,y-1/4
z,-x+1/2,y+1/2
x+1/4,z+1/4,y+1/4
-y+1/2,-z+1/2,-x+1/2
-y,z,x+1/2
-z-1/4,-y+1/4,x+1/4
y+1/2,-z,x
z+1/4,y+1/4,x+1/4
y,z+1/2,-x
-z-1/4,y-1/4,-x+1/4
z-1/4,-y+1/4,-x-1/4
loop_
_atom_site_label
_atom_site_type_symbol
_atom_site_fract_x
_atom_site_fract_y
_atom_site_fract_z
_atom_site_occupancy
_atom_site_U_iso_or_equiv
Cd1 Cd+2 0.125 0 0.25 1 0.0
Ge1 Ge+4 0.375 0 0.25 1 0.0
O1 O-2 -0.03437 0.053 0.15564 1 0.0
Sc1 Sc+3 0 0 0 1 0.0
