#------------------------------------------------------------------------------
#$Date: 2015-09-12 18:14:52 +0300 (Sat, 12 Sep 2015) $
#$Revision: 156060 $
#$URL: svn://www.crystallography.net/cod/cif/1/53/08/1530844.cif $
#------------------------------------------------------------------------------
#
# This file is available in the Crystallography Open Database (COD),
# http://www.crystallography.net/
#
# All data on this site have been placed in the public domain by the
# contributors.
#
data_1530844
loop_
_publ_author_name
'Subramanian, V.'
'Seff, K.'
_publ_section_title
;
 Five crystal structures of fully dehydrated calcium- and cesium-exchanged
 zeolite A, Ca(x) Cs(12-2x)-A, 2.8<x<5.2
;
_journal_name_full               'Journal of Physical Chemistry'
_journal_page_first              2928
_journal_page_last               2933
_journal_volume                  84
_journal_year                    1980
_chemical_formula_sum            'Al12 Ca2.8 Cs6.4 O48 Si12'
_chemical_name_systematic        'Ca2.8 Cs6.4 (Al12 Si12 O48)'
_space_group_IT_number           221
_symmetry_space_group_name_Hall  '-P 4 2 3'
_symmetry_space_group_name_H-M   'P m -3 m'
_cell_angle_alpha                90
_cell_angle_beta                 90
_cell_angle_gamma                90
_cell_formula_units_Z            1
_cell_length_a                   12.242
_cell_length_b                   12.242
_cell_length_c                   12.242
_cell_volume                     1834.666
_citation_journal_id_ASTM        JPCHAX
_cod_data_source_file            Subramanian_JPCHAX_1980_713.cif
_cod_data_source_block           Al12Ca2.8Cs6.4O48Si12
_cod_database_code               1530844
loop_
_symmetry_equiv_pos_as_xyz
x,y,z
-y,x,z
-x,-y,z
y,-x,z
x,-y,-z
y,x,-z
-x,y,-z
-y,-x,-z
z,x,y
-x,z,y
-z,-x,y
x,-z,y
z,-x,-y
x,z,-y
-z,x,-y
-x,-z,-y
y,z,x
y,-z,-x
z,y,-x
-y,z,-x
-z,-y,-x
-y,-z,x
z,-y,x
-z,y,x
-x,-y,-z
y,-x,-z
x,y,-z
-y,x,-z
-x,y,z
-y,-x,z
x,-y,z
y,x,z
-z,-x,-y
x,-z,-y
z,x,-y
-x,z,-y
-z,x,y
-x,-z,y
z,-x,y
x,z,y
-y,-z,-x
-y,z,x
-z,-y,x
y,-z,x
z,y,x
y,z,-x
-z,y,-x
z,-y,-x
loop_
_atom_site_label
_atom_site_type_symbol
_atom_site_fract_x
_atom_site_fract_y
_atom_site_fract_z
_atom_site_occupancy
_atom_site_U_iso_or_equiv
Si1 Si+4 0 0.1836 0.372 0.5 0.0
Al1 Al+3 0 0.1836 0.372 0.5 0.0
Cs1 Cs+1 0 0.5 0.5 1 0.0
O2 O-2 0 0.2946 0.2946 1 0.0
Ca1 Ca+2 0.1989 0.1989 0.1989 0.35 0.0
Cs2 Cs+1 0.0859 0.0859 0.0859 0.125 0.0
Cs3 Cs+1 0.2739 0.2739 0.2739 0.3 0.0
O1 O-2 0 0.2253 0.5 1 0.0
O3 O-2 0.1114 0.1114 0.3422 1 0.0
