#------------------------------------------------------------------------------
#$Date: 2016-02-13 21:28:24 +0200 (Sat, 13 Feb 2016) $
#$Revision: 176429 $
#$URL: svn://www.crystallography.net/cod/cif/1/53/09/1530998.cif $
#------------------------------------------------------------------------------
#
# This file is available in the Crystallography Open Database (COD),
# http://www.crystallography.net/
#
# All data on this site have been placed in the public domain by the
# contributors.
#
data_1530998
loop_
_publ_author_name
'Widera, A.'
'Schaefer, H.'
_publ_section_title
;
 Das Zustandsdiagramm Sr-Sn und die Verbindung Sr3 Sn O
;
_journal_name_full               'Journal of the Less-Common Metals'
_journal_page_first              29
_journal_page_last               36
_journal_volume                  77
_journal_year                    1981
_chemical_formula_sum            'O Sn Sr3'
_chemical_name_systematic        'Sr3 Sn O'
_space_group_IT_number           221
_symmetry_space_group_name_Hall  '-P 4 2 3'
_symmetry_space_group_name_H-M   'P m -3 m'
_cell_angle_alpha                90
_cell_angle_beta                 90
_cell_angle_gamma                90
_cell_formula_units_Z            1
_cell_length_a                   5.12
_cell_length_b                   5.12
_cell_length_c                   5.12
_cell_volume                     134.218
_citation_journal_id_ASTM        JCOMAH
_cod_data_source_file            Widera_JCOMAH_1981_703.cif
_cod_data_source_block           O1Sn1Sr3
_cod_original_cell_volume        134.2177
_cod_original_formula_sum        'O1 Sn1 Sr3'
_cod_database_code               1530998
loop_
_symmetry_equiv_pos_as_xyz
x,y,z
-y,x,z
-x,-y,z
y,-x,z
x,-y,-z
y,x,-z
-x,y,-z
-y,-x,-z
z,x,y
-x,z,y
-z,-x,y
x,-z,y
z,-x,-y
x,z,-y
-z,x,-y
-x,-z,-y
y,z,x
y,-z,-x
z,y,-x
-y,z,-x
-z,-y,-x
-y,-z,x
z,-y,x
-z,y,x
-x,-y,-z
y,-x,-z
x,y,-z
-y,x,-z
-x,y,z
-y,-x,z
x,-y,z
y,x,z
-z,-x,-y
x,-z,-y
z,x,-y
-x,z,-y
-z,x,y
-x,-z,y
z,-x,y
x,z,y
-y,-z,-x
-y,z,x
-z,-y,x
y,-z,x
z,y,x
y,z,-x
-z,y,-x
z,-y,-x
loop_
_atom_site_label
_atom_site_type_symbol
_atom_site_fract_x
_atom_site_fract_y
_atom_site_fract_z
_atom_site_occupancy
_atom_site_U_iso_or_equiv
Sr1 Sr 0 0.5 0.5 1 0.0
O1 O 0.5 0.5 0.5 1 0.0
Sn1 Sn 0 0 0 1 0.0
