#------------------------------------------------------------------------------
#$Date: 2015-09-08 22:49:40 +0300 (Tue, 08 Sep 2015) $
#$Revision: 155338 $
#$URL: svn://www.crystallography.net/cod/cif/1/53/02/1530267.cif $
#------------------------------------------------------------------------------
#
# This file is available in the Crystallography Open Database (COD),
# http://www.crystallography.net/
#
# All data on this site have been placed in the public domain by the
# contributors.
#
data_1530267
loop_
_publ_author_name
'Lee, H.S.'
'Seff, K.'
_publ_section_title
;
 Redox reactions of copper in zeolite A. Four crystal structures of
 vacuum-desolvated copper-exchanged zeolite A, Cu8-A
;
_journal_name_full               'Journal of Physical Chemistry'
_journal_page_first              397
_journal_page_last               405
_journal_volume                  85
_journal_year                    1981
_chemical_formula_sum            'Al12 Cu5.68 O48 Si12'
_chemical_name_systematic        'Cu5.68 (Al12 Si12 O48)'
_space_group_IT_number           221
_symmetry_space_group_name_Hall  '-P 4 2 3'
_symmetry_space_group_name_H-M   'P m -3 m'
_cell_angle_alpha                90
_cell_angle_beta                 90
_cell_angle_gamma                90
_cell_formula_units_Z            1
_cell_length_a                   12.208
_cell_length_b                   12.208
_cell_length_c                   12.208
_cell_volume                     1819.423
_citation_journal_id_ASTM        JPCHAX
_cod_data_source_file            Lee_JPCHAX_1981_813.cif
_cod_data_source_block           Al12Cu5.68O48Si12
_cod_database_code               1530267
loop_
_symmetry_equiv_pos_as_xyz
x,y,z
-y,x,z
-x,-y,z
y,-x,z
x,-y,-z
y,x,-z
-x,y,-z
-y,-x,-z
z,x,y
-x,z,y
-z,-x,y
x,-z,y
z,-x,-y
x,z,-y
-z,x,-y
-x,-z,-y
y,z,x
y,-z,-x
z,y,-x
-y,z,-x
-z,-y,-x
-y,-z,x
z,-y,x
-z,y,x
-x,-y,-z
y,-x,-z
x,y,-z
-y,x,-z
-x,y,z
-y,-x,z
x,-y,z
y,x,z
-z,-x,-y
x,-z,-y
z,x,-y
-x,z,-y
-z,x,y
-x,-z,y
z,-x,y
x,z,y
-y,-z,-x
-y,z,x
-z,-y,x
y,-z,x
z,y,x
y,z,-x
-z,y,-x
z,-y,-x
loop_
_atom_site_label
_atom_site_type_symbol
_atom_site_fract_x
_atom_site_fract_y
_atom_site_fract_z
_atom_site_occupancy
_atom_site_U_iso_or_equiv
Al1 Al+3 0 0.1812 0.3689 0.5 0.0
O2 O-2 0 0.2853 0.2853 1 0.0
O3 O-2 0.1148 0.1148 0.3285 1 0.0
Cu1 Cu+2 0.1949 0.1949 0.1949 0.71 0.0
Si1 Si+4 0 0.1812 0.3689 0.5 0.0
O1 O-2 0 0.1891 0.5 1 0.0
