#------------------------------------------------------------------------------
#$Date: 2016-02-13 21:28:24 +0200 (Sat, 13 Feb 2016) $
#$Revision: 176429 $
#$URL: svn://www.crystallography.net/cod/cif/1/53/16/1531620.cif $
#------------------------------------------------------------------------------
#
# This file is available in the Crystallography Open Database (COD),
# http://www.crystallography.net/
#
# All data on this site have been placed in the public domain by the
# contributors.
#
data_1531620
loop_
_publ_author_name
'Karen, P.'
'Kjekshus, A.'
'Huang, Q.'
'Sora, I.N.'
'Karen, V.L.'
'Rosov, N.'
'Santoro, A.'
'Lynn, J.W.'
_publ_section_title
;
 Neutron powder diffraction study of nuclear and magnetic structures of
 oxidized and reduced Y Ba2 Fe3 O8+w
;
_journal_name_full               'Journal of Solid State Chemistry'
_journal_page_first              87
_journal_page_last               95
_journal_volume                  174
_journal_year                    2003
_chemical_formula_sum            'Ba2 Fe3 O7.82 Y'
_chemical_name_systematic        'Y Ba2 Fe3 O7.82'
_space_group_IT_number           47
_symmetry_space_group_name_Hall  '-P 2 2'
_symmetry_space_group_name_H-M   'P m m m'
_cell_angle_alpha                90
_cell_angle_beta                 90
_cell_angle_gamma                90
_cell_formula_units_Z            1
_cell_length_a                   3.90735
_cell_length_b                   3.92532
_cell_length_c                   11.7869
_cell_volume                     180.783
_citation_journal_id_ASTM        JSSCBI
_cod_data_source_file            Karen_JSSCBI_2003_1640.cif
_cod_data_source_block           Ba2Fe3O7.82Y1
_cod_original_cell_volume        180.7827
_cod_original_formula_sum        'Ba2 Fe3 O7.82 Y1'
_cod_database_code               1531620
loop_
_symmetry_equiv_pos_as_xyz
x,y,z
-x,-y,z
x,-y,-z
-x,y,-z
-x,-y,-z
x,y,-z
-x,y,z
x,-y,z
loop_
_atom_site_label
_atom_site_type_symbol
_atom_site_fract_x
_atom_site_fract_y
_atom_site_fract_z
_atom_site_occupancy
_atom_site_U_iso_or_equiv
Fe2 Fe+2 0 0 0.3399 1 0.0
O4 O-2 0 0.5 0 0.84 0.0
O1 O-2 0 0 0.181 1 0.0
Y1 Y+3 0.5 0.5 0.5 1 0.0
O2 O-2 0.5 0 0.3834 1 0.0
O5 O-2 0.5 0 0 0.98 0.0
Fe1 Fe+2 0 0 0 1 0.0
O3 O-2 0 0.5 0.3807 1 0.0
Ba1 Ba+2 0.5 0.5 0.1692 1 0.0
