#------------------------------------------------------------------------------
#$Date: 2016-02-13 21:28:24 +0200 (Sat, 13 Feb 2016) $
#$Revision: 176429 $
#$URL: svn://www.crystallography.net/cod/cif/1/53/17/1531727.cif $
#------------------------------------------------------------------------------
#
# This file is available in the Crystallography Open Database (COD),
# http://www.crystallography.net/
#
# All data on this site have been placed in the public domain by the
# contributors.
#
data_1531727
loop_
_publ_author_name
'Mandal, P.'
'Hassen, A.'
'Hemberger, J.'
'Krimmel, A.'
'Loidl, A.'
_publ_section_title
;
 Structural, transport and magnetic properties of pure and La-doped Ru Sr2
 Gd Cu2 O8
;
_journal_name_full
'Physical Review, Serie 3. B - Condensed Matter (18,1978-)'
_journal_page_first              1445061
_journal_page_last               1445068
_journal_volume                  65
_journal_year                    2002
_chemical_formula_sum            'Cu2 Gd O8 Ru Sr2'
_chemical_name_systematic        'Ru Sr2 Gd Cu2 O8'
_space_group_IT_number           123
_symmetry_space_group_name_Hall  '-P 4 2'
_symmetry_space_group_name_H-M   'P 4/m m m'
_cell_angle_alpha                90
_cell_angle_beta                 90
_cell_angle_gamma                90
_cell_formula_units_Z            1
_cell_length_a                   3.8399
_cell_length_b                   3.8399
_cell_length_c                   11.5766
_cell_volume                     170.695
_citation_journal_id_ASTM        PRBMDO
_cod_data_source_file            Mandal_PRBMDO_2002_813.cif
_cod_data_source_block           Cu2Gd1O8Ru1Sr2
_cod_original_formula_sum        'Cu2 Gd1 O8 Ru1 Sr2'
_cod_database_code               1531727
loop_
_symmetry_equiv_pos_as_xyz
x,y,z
-y,x,z
-x,-y,z
y,-x,z
x,-y,-z
y,x,-z
-x,y,-z
-y,-x,-z
-x,-y,-z
y,-x,-z
x,y,-z
-y,x,-z
-x,y,z
-y,-x,z
x,-y,z
y,x,z
loop_
_atom_site_label
_atom_site_type_symbol
_atom_site_fract_x
_atom_site_fract_y
_atom_site_fract_z
_atom_site_occupancy
_atom_site_U_iso_or_equiv
O1 O-2 0.0417 0 0.3375 0.25 0.0
Gd1 Gd+3 0.5 0.5 0 1 0.0
O2 O-2 0 0.5 0.1228 1 0.0
Ru1 Ru+5 0 0 0.5 1 0.0
Cu1 Cu+2 0 0 0.1484 1 0.0
Sr1 Sr+2 0.5 0.5 0.3108 1 0.0
O3 O-2 0.1174 0.5 0.5 0.5 0.0
