#------------------------------------------------------------------------------
#$Date: 2015-09-17 23:55:10 +0300 (Thu, 17 Sep 2015) $
#$Revision: 157026 $
#$URL: svn://www.crystallography.net/cod/cif/1/53/15/1531536.cif $
#------------------------------------------------------------------------------
#
# This file is available in the Crystallography Open Database (COD),
# http://www.crystallography.net/
#
# All data on this site have been placed in the public domain by the
# contributors.
#
data_1531536
loop_
_publ_author_name
'Huang, T.-S.'
'Chen, C.H.'
'Tai, M.F.'
_publ_section_title
;
 Studies on crystal structure and magnetic scaling behavior of
 perovskite-like (La1-x Pbx) Mn O3 system with x = 0 - 0.5
;
_journal_name_full
'Materials Research Society Symposia Proceedings'
_journal_page_first              U3.4.1
_journal_page_last               U3.4.6
_journal_volume                  674
_journal_year                    2001
_chemical_formula_sum            'La0.52 Mn1.1 O3.12 Pb0.41'
_chemical_name_systematic        '(La0.62 Pb0.41) Mn1.1 O3.12'
_space_group_IT_number           167
_symmetry_space_group_name_Hall  '-R 3 2"c'
_symmetry_space_group_name_H-M   'R -3 c :H'
_cell_angle_alpha                90
_cell_angle_beta                 90
_cell_angle_gamma                120
_cell_formula_units_Z            6
_cell_length_a                   5.5217
_cell_length_b                   5.5217
_cell_length_c                   13.404
_cell_volume                     353.925
_citation_journal_id_ASTM        MRSPDH
_cod_data_source_file            Huang_MRSPDH_2001_1205.cif
_cod_data_source_block           La0.52Mn1.1O3.12Pb0.41
_cod_original_cell_volume        353.9245
_cod_database_code               1531536
loop_
_symmetry_equiv_pos_as_xyz
x,y,z
-y,x-y,z
-x+y,-x,z
y,x,-z+1/2
-x,-x+y,-z+1/2
x-y,-y,-z+1/2
-x,-y,-z
y,-x+y,-z
x-y,x,-z
-y,-x,z-1/2
x,x-y,z-1/2
-x+y,y,z-1/2
x+2/3,y+1/3,z+1/3
-y+2/3,x-y+1/3,z+1/3
-x+y+2/3,-x+1/3,z+1/3
y+2/3,x+1/3,-z+5/6
-x+2/3,-x+y+1/3,-z+5/6
x-y+2/3,-y+1/3,-z+5/6
-x+2/3,-y+1/3,-z+1/3
y+2/3,-x+y+1/3,-z+1/3
x-y+2/3,x+1/3,-z+1/3
-y+2/3,-x+1/3,z-1/6
x+2/3,x-y+1/3,z-1/6
-x+y+2/3,y+1/3,z-1/6
x+1/3,y+2/3,z+2/3
-y+1/3,x-y+2/3,z+2/3
-x+y+1/3,-x+2/3,z+2/3
y+1/3,x+2/3,-z+7/6
-x+1/3,-x+y+2/3,-z+7/6
x-y+1/3,-y+2/3,-z+7/6
-x+1/3,-y+2/3,-z+2/3
y+1/3,-x+y+2/3,-z+2/3
x-y+1/3,x+2/3,-z+2/3
-y+1/3,-x+2/3,z+1/6
x+1/3,x-y+2/3,z+1/6
-x+y+1/3,y+2/3,z+1/6
loop_
_atom_site_label
_atom_site_type_symbol
_atom_site_fract_x
_atom_site_fract_y
_atom_site_fract_z
_atom_site_occupancy
_atom_site_U_iso_or_equiv
Mn1 Mn+3 0 0 0 0.7 0.0
O1 O-2 0.4618 0 0.25 1.04 0.0
Mn2 Mn+4 0 0 0 0.4 0.0
Pb1 Pb+2 0 0 0.75 0.41 0.0
La1 La+3 0 0 0.75 0.52 0.0
