#------------------------------------------------------------------------------
#$Date: 2015-09-18 00:29:04 +0300 (Fri, 18 Sep 2015) $
#$Revision: 157169 $
#$URL: svn://www.crystallography.net/cod/cif/1/53/16/1531647.cif $
#------------------------------------------------------------------------------
#
# This file is available in the Crystallography Open Database (COD),
# http://www.crystallography.net/
#
# All data on this site have been placed in the public domain by the
# contributors.
#
data_1531647
loop_
_publ_author_name
'Jeong Gyoung Hwa'
'Kim Yang'
_publ_section_title
;
 Crystal structures of zeolite X exchanged by two different
 cations.Structures of (Cd32 Cs28)-X and (Cd28 Rb36)-X (X = Si100 Al92
 O384)
;
_journal_name_full               'Bulletin of the Korean Chemical Society'
_journal_page_first              1121
_journal_page_last               1126
_journal_volume                  23
_journal_year                    2002
_chemical_formula_sum            'Al92 Cd28 O384 Rb36 Si100'
_chemical_name_systematic        'Cd28 Rb36 (Al92 Si100 O384)'
_space_group_IT_number           203
_symmetry_space_group_name_Hall  '-F 2uv 2vw 3'
_symmetry_space_group_name_H-M   'F d -3 :2'
_cell_angle_alpha                90
_cell_angle_beta                 90
_cell_angle_gamma                90
_cell_formula_units_Z            1
_cell_length_a                   24.794
_cell_length_b                   24.794
_cell_length_c                   24.794
_cell_volume                     15241.924
_citation_journal_id_ASTM        BKCSDE
_cod_data_source_file            JeongGyoungHwa_BKCSDE_2002_1896.cif
_cod_data_source_block           Al92Cd28O384Rb36Si100
_cod_original_cell_volume        15241.92
_cod_database_code               1531647
loop_
_symmetry_equiv_pos_as_xyz
x,y,z
-x+1/4,-y+1/4,z
x,-y+1/4,-z+1/4
-x+1/4,y,-z+1/4
z,x,y
-z+1/4,-x+1/4,y
z,-x+1/4,-y+1/4
-z+1/4,x,-y+1/4
y,z,x
y,-z+1/4,-x+1/4
-y+1/4,z,-x+1/4
-y+1/4,-z+1/4,x
-x,-y,-z
x-1/4,y-1/4,-z
-x,y-1/4,z-1/4
x-1/4,-y,z-1/4
-z,-x,-y
z-1/4,x-1/4,-y
-z,x-1/4,y-1/4
z-1/4,-x,y-1/4
-y,-z,-x
-y,z-1/4,x-1/4
y-1/4,-z,x-1/4
y-1/4,z-1/4,-x
x,y+1/2,z+1/2
-x+1/4,-y+3/4,z+1/2
x,-y+3/4,-z+3/4
-x+1/4,y+1/2,-z+3/4
z,x+1/2,y+1/2
-z+1/4,-x+3/4,y+1/2
z,-x+3/4,-y+3/4
-z+1/4,x+1/2,-y+3/4
y,z+1/2,x+1/2
y,-z+3/4,-x+3/4
-y+1/4,z+1/2,-x+3/4
-y+1/4,-z+3/4,x+1/2
-x,-y+1/2,-z+1/2
x-1/4,y+1/4,-z+1/2
-x,y+1/4,z+1/4
x-1/4,-y+1/2,z+1/4
-z,-x+1/2,-y+1/2
z-1/4,x+1/4,-y+1/2
-z,x+1/4,y+1/4
z-1/4,-x+1/2,y+1/4
-y,-z+1/2,-x+1/2
-y,z+1/4,x+1/4
y-1/4,-z+1/2,x+1/4
y-1/4,z+1/4,-x+1/2
x+1/2,y,z+1/2
-x+3/4,-y+1/4,z+1/2
x+1/2,-y+1/4,-z+3/4
-x+3/4,y,-z+3/4
z+1/2,x,y+1/2
-z+3/4,-x+1/4,y+1/2
z+1/2,-x+1/4,-y+3/4
-z+3/4,x,-y+3/4
y+1/2,z,x+1/2
y+1/2,-z+1/4,-x+3/4
-y+3/4,z,-x+3/4
-y+3/4,-z+1/4,x+1/2
-x+1/2,-y,-z+1/2
x+1/4,y-1/4,-z+1/2
-x+1/2,y-1/4,z+1/4
x+1/4,-y,z+1/4
-z+1/2,-x,-y+1/2
z+1/4,x-1/4,-y+1/2
-z+1/2,x-1/4,y+1/4
z+1/4,-x,y+1/4
-y+1/2,-z,-x+1/2
-y+1/2,z-1/4,x+1/4
y+1/4,-z,x+1/4
y+1/4,z-1/4,-x+1/2
x+1/2,y+1/2,z
-x+3/4,-y+3/4,z
x+1/2,-y+3/4,-z+1/4
-x+3/4,y+1/2,-z+1/4
z+1/2,x+1/2,y
-z+3/4,-x+3/4,y
z+1/2,-x+3/4,-y+1/4
-z+3/4,x+1/2,-y+1/4
y+1/2,z+1/2,x
y+1/2,-z+3/4,-x+1/4
-y+3/4,z+1/2,-x+1/4
-y+3/4,-z+3/4,x
-x+1/2,-y+1/2,-z
x+1/4,y+1/4,-z
-x+1/2,y+1/4,z-1/4
x+1/4,-y+1/2,z-1/4
-z+1/2,-x+1/2,-y
z+1/4,x+1/4,-y
-z+1/2,x+1/4,y-1/4
z+1/4,-x+1/2,y-1/4
-y+1/2,-z+1/2,-x
-y+1/2,z+1/4,x-1/4
y+1/4,-z+1/2,x-1/4
y+1/4,z+1/4,-x
loop_
_atom_site_label
_atom_site_type_symbol
_atom_site_fract_x
_atom_site_fract_y
_atom_site_fract_z
_atom_site_occupancy
_atom_site_U_iso_or_equiv
Al1 Al+3 -0.0537 0.0357 0.1226 0.9583 0.0
Cd3 Cd+2 0.232 0.232 0.232 0.125 0.0
Si1 Si+4 -0.0535 0.1228 0.0345 1 0.0
Rb1 Rb+1 0.2558 0.2558 0.2558 0.4687 0.0
Rb2 Rb+1 0.4202 0.125 0.125 0.4375 0.0
Cd1 Cd+2 0 0 0 1 0.0
Si2 Si+4 -0.0537 0.0357 0.1226 0.0417 0.0
O2 O-2 -0.0039 -0.0037 0.1467 1 0.0
O3 O-2 -0.033 0.0632 0.0623 1 0.0
Cd2 Cd+2 0.2154 0.2154 0.2154 0.25 0.0
O1 O-2 0.8907 0.0006 0.1082 1 0.0
O4 O-2 -0.0658 0.0824 0.1689 1 0.0
