#------------------------------------------------------------------------------
#$Date: 2016-02-13 21:28:24 +0200 (Sat, 13 Feb 2016) $
#$Revision: 176429 $
#$URL: svn://www.crystallography.net/cod/cif/1/53/14/1531401.cif $
#------------------------------------------------------------------------------
#
# This file is available in the Crystallography Open Database (COD),
# http://www.crystallography.net/
#
# All data on this site have been placed in the public domain by the
# contributors.
#
data_1531401
loop_
_publ_author_name
'Hennings, D.'
'Rosenstein, G.'
_publ_section_title
;
 X-ray structure investigation of Lanthanum modified Lead titanate with
 A-site and B-site vacancies
;
_journal_name_full               'Materials Research Bulletin'
_journal_page_first              1505
_journal_page_last               1514
_journal_volume                  7
_journal_year                    1972
_chemical_formula_sum            'La0.3 O3 Pb0.56 Ti'
_chemical_name_systematic        'Pb.56 La.30 Ti O3'
_space_group_IT_number           221
_symmetry_space_group_name_Hall  '-P 4 2 3'
_symmetry_space_group_name_H-M   'P m -3 m'
_cell_angle_alpha                90
_cell_angle_beta                 90
_cell_angle_gamma                90
_cell_formula_units_Z            1
_cell_length_a                   3.916
_cell_length_b                   3.916
_cell_length_c                   3.916
_cell_volume                     60.052
_citation_journal_id_ASTM        MRBUAC
_cod_data_source_file            Hennings_MRBUAC_1972_12.cif
_cod_data_source_block           La0.3O3Pb0.56Ti1
_cod_original_cell_volume        60.05207
_cod_original_formula_sum        'La0.3 O3 Pb0.56 Ti1'
_cod_database_code               1531401
loop_
_symmetry_equiv_pos_as_xyz
x,y,z
-y,x,z
-x,-y,z
y,-x,z
x,-y,-z
y,x,-z
-x,y,-z
-y,-x,-z
z,x,y
-x,z,y
-z,-x,y
x,-z,y
z,-x,-y
x,z,-y
-z,x,-y
-x,-z,-y
y,z,x
y,-z,-x
z,y,-x
-y,z,-x
-z,-y,-x
-y,-z,x
z,-y,x
-z,y,x
-x,-y,-z
y,-x,-z
x,y,-z
-y,x,-z
-x,y,z
-y,-x,z
x,-y,z
y,x,z
-z,-x,-y
x,-z,-y
z,x,-y
-x,z,-y
-z,x,y
-x,-z,y
z,-x,y
x,z,y
-y,-z,-x
-y,z,x
-z,-y,x
y,-z,x
z,y,x
y,z,-x
-z,y,-x
z,-y,-x
loop_
_atom_site_label
_atom_site_type_symbol
_atom_site_fract_x
_atom_site_fract_y
_atom_site_fract_z
_atom_site_occupancy
_atom_site_U_iso_or_equiv
O1 O-2 0.5 0.5 0 1 0.0
Pb1 Pb+2 0 0 0 0.56 0.0
La1 La+3 0 0 0 0.3 0.0
Ti1 Ti+4 0.5 0.5 0.5 1 0.0
