#------------------------------------------------------------------------------
#$Date: 2016-02-13 21:28:24 +0200 (Sat, 13 Feb 2016) $
#$Revision: 176429 $
#$URL: svn://www.crystallography.net/cod/cif/1/53/16/1531655.cif $
#------------------------------------------------------------------------------
#
# This file is available in the Crystallography Open Database (COD),
# http://www.crystallography.net/
#
# All data on this site have been placed in the public domain by the
# contributors.
#
data_1531655
loop_
_publ_author_name
'Jirak, Z.'
'Hejtmanek, J.'
'Dlouha, M.'
'Knizek, K.'
'Pollert, E.'
'Kuzel, R.'
'Marysko, M.'
'Vratislav, S.'
'Hervieu, M.'
_publ_section_title
;
 Structure and magnetism in the Pr1-x Nax Mn O3 perovskites (0 <= x <=0.2)
;
_journal_name_full               'Journal of Magnetism and Magnetic Materials'
_journal_page_first              275
_journal_page_last               287
_journal_volume                  250
_journal_year                    2002
_chemical_formula_sum            'Mn Na0.025 O3 Pr0.975'
_chemical_name_systematic        '(Pr0.975 Na0.025) (Mn O3)'
_space_group_IT_number           62
_symmetry_space_group_name_Hall  '-P 2c 2ab'
_symmetry_space_group_name_H-M   'P b n m'
_cell_angle_alpha                90
_cell_angle_beta                 90
_cell_angle_gamma                90
_cell_formula_units_Z            4
_cell_length_a                   5.451
_cell_length_b                   5.699
_cell_length_c                   7.608
_cell_volume                     236.344
_citation_journal_id_ASTM        JMMMDC
_cod_data_source_file            Jirak_JMMMDC_2002_1164.cif
_cod_data_source_block           Mn1Na0.025O3Pr0.975
_cod_original_cell_volume        236.3444
_cod_original_sg_symbol_Hall     '-P 2ac 2n (z,x,y)'
_cod_original_formula_sum        'Mn1 Na0.025 O3 Pr0.975'
_cod_database_code               1531655
loop_
_symmetry_equiv_pos_as_xyz
x,y,z
x+1/2,-y+1/2,-z
-x+1/2,y+1/2,-z+1/2
-x,-y,z+1/2
-x,-y,-z
-x-1/2,y-1/2,z
x-1/2,-y-1/2,z-1/2
x,y,-z-1/2
loop_
_atom_site_label
_atom_site_type_symbol
_atom_site_fract_x
_atom_site_fract_y
_atom_site_fract_z
_atom_site_occupancy
_atom_site_U_iso_or_equiv
O1 O-2 0.084 0.484 0.25 1 0.0
Mn1 Mn+3 0.5 0 0 1 0.0
O2 O-2 0.716 0.309 0.042 1 0.0
Pr1 Pr+3 -0.021 0.062 0.25 0.975 0.0
Na1 Na+1 -0.021 0.062 0.25 0.025 0.0
