#------------------------------------------------------------------------------
#$Date: 2016-02-13 14:50:18 +0200 (Sat, 13 Feb 2016) $
#$Revision: 176428 $
#$URL: svn://www.crystallography.net/cod/cif/1/53/10/1531087.cif $
#------------------------------------------------------------------------------
#
# This file is available in the Crystallography Open Database (COD),
# http://www.crystallography.net/
#
# All data on this site have been placed in the public domain by the
# contributors.
#
data_1531087
loop_
_publ_author_name
'Avdeev, M.'
'Ferreira, V.M.'
'Seabra, M.P.'
_publ_section_title
;
 Crystal structure of dielectric ceramics in the (La (Mg0.5 Ti0.5) O3) -
 (Ba Ti O3) system
;
_journal_name_full               'Journal of Materials Research'
_journal_page_first              1112
_journal_page_last               1117
_journal_volume                  17
_journal_year                    2002
_chemical_formula_sum            'Ba0.3 La0.7 Mg0.35 O3 Ti0.65'
_chemical_name_systematic        '(La0.7 Ba0.3) (Mg0.35 Ti0.65) O3'
_space_group_IT_number           62
_symmetry_space_group_name_Hall  '-P 2c 2ab'
_symmetry_space_group_name_H-M   'P b n m'
_cell_angle_alpha                90
_cell_angle_beta                 90
_cell_angle_gamma                90
_cell_formula_units_Z            4
_cell_length_a                   5.61037
_cell_length_b                   5.58684
_cell_length_c                   7.89838
_cell_volume                     247.569
_citation_journal_id_ASTM        JMREEE
_cod_data_source_file            Avdeev_JMREEE_2002_1172.cif
_cod_data_source_block           Ba0.3La0.7Mg0.35O3Ti0.65
_cod_original_cell_volume        247.5687
_cod_original_sg_symbol_Hall     '-P 2ac 2n (z,x,y)'
_cod_database_code               1531087
loop_
_symmetry_equiv_pos_as_xyz
x,y,z
x+1/2,-y+1/2,-z
-x+1/2,y+1/2,-z+1/2
-x,-y,z+1/2
-x,-y,-z
-x-1/2,y-1/2,z
x-1/2,-y-1/2,z-1/2
x,y,-z-1/2
loop_
_atom_site_label
_atom_site_type_symbol
_atom_site_fract_x
_atom_site_fract_y
_atom_site_fract_z
_atom_site_occupancy
_atom_site_U_iso_or_equiv
O1 O-2 0.046 0.493 0.25 1 0.0
O2 O-2 0.751 0.265 0.0284 1 0.0
Mg1 Mg+2 0.5 0 0 0.35 0.0
La1 La+3 -0.0023 0.0009 0.25 0.7 0.0
Ba1 Ba+2 -0.0023 0.0009 0.25 0.3 0.0
Ti1 Ti+4 0.5 0 0 0.65 0.0
