#------------------------------------------------------------------------------
#$Date: 2015-09-18 00:45:34 +0300 (Fri, 18 Sep 2015) $
#$Revision: 157213 $
#$URL: svn://www.crystallography.net/cod/cif/1/53/16/1531677.cif $
#------------------------------------------------------------------------------
#
# This file is available in the Crystallography Open Database (COD),
# http://www.crystallography.net/
#
# All data on this site have been placed in the public domain by the
# contributors.
#
data_1531677
loop_
_publ_author_name
'Joseph, J.'
'Murthy, V.R.K.'
Dias
'Vimala, T.M.'
_publ_section_title
;
 Structural investigations on Bax Pb1-x (Mg1/3 Nb2/3) O3 solid solutions
;
_journal_name_full               'Japanese Journal of Applied Physics, Part 1'
_journal_page_first              3010
_journal_page_last               3014
_journal_volume                  41
_journal_year                    2002
_chemical_formula_sum            'Ba0.414 Mg0.28 Nb0.72 O3 Pb0.586'
_chemical_name_systematic        '(Pb0.586 Ba0.414) (Mg0.28 Nb0.72) O3'
_space_group_IT_number           221
_symmetry_space_group_name_Hall  '-P 4 2 3'
_symmetry_space_group_name_H-M   'P m -3 m'
_cell_angle_alpha                90
_cell_angle_beta                 90
_cell_angle_gamma                90
_cell_formula_units_Z            1
_cell_length_a                   4.0633
_cell_length_b                   4.0633
_cell_length_c                   4.0633
_cell_volume                     67.087
_citation_journal_id_ASTM        JAPNDE
_cod_data_source_file            Joseph_JAPNDE_2002_692.cif
_cod_data_source_block           Ba0.414Mg0.28Nb0.72O3Pb0.586
_cod_original_cell_volume        67.08675
_cod_database_code               1531677
loop_
_symmetry_equiv_pos_as_xyz
x,y,z
-y,x,z
-x,-y,z
y,-x,z
x,-y,-z
y,x,-z
-x,y,-z
-y,-x,-z
z,x,y
-x,z,y
-z,-x,y
x,-z,y
z,-x,-y
x,z,-y
-z,x,-y
-x,-z,-y
y,z,x
y,-z,-x
z,y,-x
-y,z,-x
-z,-y,-x
-y,-z,x
z,-y,x
-z,y,x
-x,-y,-z
y,-x,-z
x,y,-z
-y,x,-z
-x,y,z
-y,-x,z
x,-y,z
y,x,z
-z,-x,-y
x,-z,-y
z,x,-y
-x,z,-y
-z,x,y
-x,-z,y
z,-x,y
x,z,y
-y,-z,-x
-y,z,x
-z,-y,x
y,-z,x
z,y,x
y,z,-x
-z,y,-x
z,-y,-x
loop_
_atom_site_label
_atom_site_type_symbol
_atom_site_fract_x
_atom_site_fract_y
_atom_site_fract_z
_atom_site_occupancy
_atom_site_U_iso_or_equiv
Ba1 Ba+2 0 0 0 0.414 0.0
Mg1 Mg+2 0.5 0.5 0.5 0.28 0.0
O1 O-2 0.5 0.5 0 1 0.0
Nb1 Nb+4 0.5 0.5 0.5 0.72 0.0
Pb1 Pb+2 0 0 0 0.586 0.0
