#------------------------------------------------------------------------------
#$Date: 2018-03-12 00:34:13 +0200 (Mon, 12 Mar 2018) $
#$Revision: 206904 $
#$URL: file:///home/coder/svn-repositories/cod/cif/1/53/16/1531697.cif $
#------------------------------------------------------------------------------
#
# This file is available in the Crystallography Open Database (COD),
# http://www.crystallography.net/
#
# All data on this site have been placed in the public domain by the
# contributors.
#
data_1531697
loop_
_publ_author_name
'Kirbyshire, A. L.'
'Greaves, C.'
_publ_section_title
;
 PbBa~2~Y~1-x~Ca~x~Cu~3~O~7+\d~: synthesis, structure and superconductivity
;
_journal_coden_ASTM              SUSTEF
_journal_issue                   7
_journal_name_full               'Superconductor Science and Technology'
_journal_page_first              1048
_journal_page_last               1053
_journal_paper_doi               10.1088/0953-2048/15/7/310
_journal_volume                  15
_journal_year                    2002
_chemical_formula_sum            'Ba2 Ca0.2 Cu3 O8.12 Pb Y0.8'
_chemical_name_systematic        'Pb Ba2 (Y0.8 Ca0.2) Cu3 O8.12'
_space_group_IT_number           107
_symmetry_space_group_name_Hall  'I 4 -2'
_symmetry_space_group_name_H-M   'I 4 m m'
_cell_angle_alpha                90
_cell_angle_beta                 90
_cell_angle_gamma                90
_cell_formula_units_Z            2
_cell_length_a                   3.86744
_cell_length_b                   3.86744
_cell_length_c                   28.2555
_cell_volume                     422.620
_cod_data_source_file            Kirbyshire_SUSTEF_2002_1758.cif
_cod_data_source_block           Ba2Ca0.2Cu3O8.12Pb1Y0.8
_cod_original_cell_volume        422.6201
_cod_original_formula_sum        'Ba2 Ca0.2 Cu3 O8.12 Pb1 Y0.8'
_cod_database_code               1531697
loop_
_symmetry_equiv_pos_as_xyz
x,y,z
-y,x,z
-x,-y,z
y,-x,z
-x,y,z
-y,-x,z
x,-y,z
y,x,z
x+1/2,y+1/2,z+1/2
-y+1/2,x+1/2,z+1/2
-x+1/2,-y+1/2,z+1/2
y+1/2,-x+1/2,z+1/2
-x+1/2,y+1/2,z+1/2
-y+1/2,-x+1/2,z+1/2
x+1/2,-y+1/2,z+1/2
y+1/2,x+1/2,z+1/2
loop_
_atom_site_label
_atom_site_type_symbol
_atom_site_fract_x
_atom_site_fract_y
_atom_site_fract_z
_atom_site_occupancy
_atom_site_U_iso_or_equiv
Ba1 Ba+2 0.5 0.5 0.0693 1 0.0
O4 O-2 0.5 0.5 0.2923 1 0.0
Cu3 Cu+2 0.5 0.5 0.38573 1 0.0
O2 O-2 0 0 0.0875 1 0.0
O7 O-2 0.5 0.12 0.1642 0.133 0.0
O6 O-2 0.418 0 0.234 0.075 0.0
O1 O-2 0 0.5 -0.0097 1 0.0
O8 O-2 0.5 0.349 0.1622 0.147 0.0
Cu2 Cu+2 0 0 0.1593 0.558 0.0
Ba2 Ba+2 0 0 0.3134 1 0.0
Y1 Y+3 0 0 0.4411 0.8 0.0
Ca1 Ca+2 0 0 0.4411 0.2 0.0
Cu1 Cu+2 0 0 0 1 0.0
O3 O-2 0.22 0 0.2244 0.175 0.0
Cu4 Cu+2 0.5 0.5 0.2237 0.442 0.0
Pb1 Pb+2 0.5 0.468 0.2237 0.14 0.0
O5 O-2 0 0.5 0.3888 1 0.0
Pb2 Pb+2 0 0.032 0.1623 0.11 0.0
