#------------------------------------------------------------------------------
#$Date: 2016-02-13 21:28:24 +0200 (Sat, 13 Feb 2016) $
#$Revision: 176429 $
#$URL: svn://www.crystallography.net/cod/cif/1/53/10/1531074.cif $
#------------------------------------------------------------------------------
#
# This file is available in the Crystallography Open Database (COD),
# http://www.crystallography.net/
#
# All data on this site have been placed in the public domain by the
# contributors.
#
data_1531074
loop_
_publ_author_name
'Anderson, P.S.'
'Kirk, C.A.'
'Skakle, J.M.S.'
'West, A.R.'
_publ_section_title
;
 Synthesis and characterization of La4 Ba Cu5 O13+d and La4 Ba Cu5-x Mx
 O13+d : M = Fe, Co, Ni, Zn
;
_journal_name_full               'Journal of Solid State Chemistry'
_journal_page_first              1
_journal_page_last               8
_journal_volume                  170
_journal_year                    2003
_chemical_formula_sum            'Ba Co Cu4 La4 O12.9'
_chemical_name_systematic        'La4 Ba Cu4 Co O12.9'
_space_group_IT_number           83
_symmetry_space_group_name_Hall  '-P 4'
_symmetry_space_group_name_H-M   'P 4/m'
_cell_angle_alpha                90
_cell_angle_beta                 90
_cell_angle_gamma                90
_cell_formula_units_Z            1
_cell_length_a                   8.60946
_cell_length_b                   8.60946
_cell_length_c                   3.88304
_cell_volume                     287.822
_citation_journal_id_ASTM        JSSCBI
_cod_data_source_file            Anderson_JSSCBI_2003_1458.cif
_cod_data_source_block           Ba1Co1Cu4La4O12.9
_cod_original_cell_volume        287.8218
_cod_original_formula_sum        'Ba1 Co1 Cu4 La4 O12.9'
_cod_database_code               1531074
loop_
_symmetry_equiv_pos_as_xyz
x,y,z
-y,x,z
-x,-y,z
y,-x,z
-x,-y,-z
y,-x,-z
x,y,-z
-y,x,-z
loop_
_atom_site_label
_atom_site_type_symbol
_atom_site_fract_x
_atom_site_fract_y
_atom_site_fract_z
_atom_site_occupancy
_atom_site_U_iso_or_equiv
Co2 Co+2 0.41502 0.17142 0 0.1375 0.0
Cu1 Cu+2 0 0 0 0.55 0.0
La1 La+3 0.12272 0.28007 0.5 1 0.0
Cu2 Cu+2 0.41502 0.17142 0 0.8625 0.0
Ba1 Ba+2 0.5 0.5 0.5 1 0.0
O2 O-2 0.2672 0.3919 0 1 0.0
O1 O-2 0 0 0.5 0.9 0.0
O4 O-2 0.412 0.1579 0.5 1 0.0
O3 O-2 0.2198 0.0603 0 1 0.0
Co1 Co+2 0 0 0 0.45 0.0
