#------------------------------------------------------------------------------
#$Date: 2016-02-13 21:28:24 +0200 (Sat, 13 Feb 2016) $
#$Revision: 176429 $
#$URL: svn://www.crystallography.net/cod/cif/1/53/10/1531085.cif $
#------------------------------------------------------------------------------
#
# This file is available in the Crystallography Open Database (COD),
# http://www.crystallography.net/
#
# All data on this site have been placed in the public domain by the
# contributors.
#
data_1531085
loop_
_publ_author_name
'Avdeev, M.'
'Seabra, M.P.'
'Ferreira, V.M.'
_publ_section_title
;
 Crystal structure of dielectric ceramics in the (La (Mg0.5 Ti0.5) O3) -
 (Ba Ti O3) system
;
_journal_name_full               'Journal of Materials Research'
_journal_page_first              1112
_journal_page_last               1117
_journal_volume                  17
_journal_year                    2002
_chemical_formula_sum            'La Mg0.5 O3 Ti0.5'
_chemical_name_systematic        'La (Mg0.5 Ti0.5) O3'
_space_group_IT_number           14
_symmetry_space_group_name_Hall  '-P 2yn'
_symmetry_space_group_name_H-M   'P 1 21/n 1'
_cell_angle_alpha                90
_cell_angle_beta                 90.028
_cell_angle_gamma                90
_cell_formula_units_Z            4
_cell_length_a                   5.5644
_cell_length_b                   5.5742
_cell_length_c                   7.8665
_cell_volume                     243.996
_citation_journal_id_ASTM        JMREEE
_cod_data_source_file            Avdeev_JMREEE_2002_1170.cif
_cod_data_source_block           La1Mg0.5O3Ti0.5
_cod_original_cell_volume        243.9958
_cod_original_sg_symbol_Hall     '-P 2ybc (x-z,y,z)'
_cod_original_formula_sum        'La1 Mg0.5 O3 Ti0.5'
_cod_database_code               1531085
loop_
_symmetry_equiv_pos_as_xyz
x,y,z
-x+1/2,y+1/2,-z+1/2
-x,-y,-z
x-1/2,-y-1/2,z-1/2
loop_
_atom_site_label
_atom_site_type_symbol
_atom_site_fract_x
_atom_site_fract_y
_atom_site_fract_z
_atom_site_occupancy
_atom_site_U_iso_or_equiv
Ti2 Ti+4 0 0.5 0 0.039 0.0
O2 O-2 0.24 0.813 0.026 1 0.0
Mg2 Mg+2 0 0.5 0 0.961 0.0
Mg1 Mg+2 0.5 0 0 0.039 0.0
O1 O-2 0.288 0.267 0.051 1 0.0
O3 O-2 0.564 0.988 0.263 1 0.0
La1 La+3 0.4942 0.52886 0.2499 1 0.0
Ti1 Ti+4 0.5 0 0 0.961 0.0
