#------------------------------------------------------------------------------
#$Date: 2016-02-13 21:28:24 +0200 (Sat, 13 Feb 2016) $
#$Revision: 176429 $
#$URL: svn://www.crystallography.net/cod/cif/1/53/12/1531216.cif $
#------------------------------------------------------------------------------
#
# This file is available in the Crystallography Open Database (COD),
# http://www.crystallography.net/
#
# All data on this site have been placed in the public domain by the
# contributors.
#
data_1531216
loop_
_publ_author_name
'Burley, J.C.'
'Mitchell, J.F.'
'Short, S.'
'Tang, Y.'
'Miller, D.'
_publ_section_title
;
 Structural and magnetic chemistry of Nd Ba Co2 O5+d
;
_journal_name_full               'Journal of Solid State Chemistry'
_journal_page_first              339
_journal_page_last               350
_journal_volume                  170
_journal_year                    2003
_chemical_formula_sum            'Ba Co2 Nd O5.31'
_chemical_name_systematic        'Nd Ba Co2 O5.31'
_space_group_IT_number           47
_symmetry_space_group_name_Hall  '-P 2 2'
_symmetry_space_group_name_H-M   'P m m m'
_cell_angle_alpha                90
_cell_angle_beta                 90
_cell_angle_gamma                90
_cell_formula_units_Z            1
_cell_length_a                   3.9161
_cell_length_b                   3.9258
_cell_length_c                   7.5732
_cell_volume                     116.429
_citation_journal_id_ASTM        JSSCBI
_cod_data_source_file            Burley_JSSCBI_2003_1484.cif
_cod_data_source_block           Ba1Co2Nd1O5.31
_cod_original_cell_volume        116.4291
_cod_original_formula_sum        'Ba1 Co2 Nd1 O5.31'
_cod_database_code               1531216
loop_
_symmetry_equiv_pos_as_xyz
x,y,z
-x,-y,z
x,-y,-z
-x,y,-z
-x,-y,-z
x,y,-z
-x,y,z
x,-y,z
loop_
_atom_site_label
_atom_site_type_symbol
_atom_site_fract_x
_atom_site_fract_y
_atom_site_fract_z
_atom_site_occupancy
_atom_site_U_iso_or_equiv
O4 O-2 0 0 0 0.31 0.0
O3 O-2 0 0 0.5 1 0.0
Nd1 Nd+3 0.5 0.5 0 1 0.0
O1 O-2 0 0.5 0.2127 1 0.0
Ba1 Ba+2 0.5 0.5 0.5 1 0.0
Co1 Co+2 0 0 0.2476 1 0.0
O2 O-2 0.5 0 0.2038 1 0.0
