#------------------------------------------------------------------------------
#$Date: 2015-09-18 00:27:37 +0300 (Fri, 18 Sep 2015) $
#$Revision: 157166 $
#$URL: svn://www.crystallography.net/cod/cif/1/53/16/1531644.cif $
#------------------------------------------------------------------------------
#
# This file is available in the Crystallography Open Database (COD),
# http://www.crystallography.net/
#
# All data on this site have been placed in the public domain by the
# contributors.
#
data_1531644
loop_
_publ_author_name
'Jeong Gyoung Hwa'
'Kim Yang'
_publ_section_title
;
 Crystal structures of zeolite X exchanged by two different cations.
 Structures of (Cd32 Cs28)-X and (Cd28 Rb36)-X (X = Si100 Al92 O384)
;
_journal_name_full               'Bulletin of the Korean Chemical Society'
_journal_page_first              1121
_journal_page_last               1126
_journal_volume                  23
_journal_year                    2002
_chemical_formula_sum            'Al92 Cd32 Cs28 O384 Si100'
_chemical_name_systematic        'Cd32 Cs28 (Al92 Si100 O384)'
_space_group_IT_number           203
_symmetry_space_group_name_Hall  '-F 2uv 2vw 3'
_symmetry_space_group_name_H-M   'F d -3 :2'
_cell_angle_alpha                90
_cell_angle_beta                 90
_cell_angle_gamma                90
_cell_formula_units_Z            1
_cell_length_a                   24.828
_cell_length_b                   24.828
_cell_length_c                   24.828
_cell_volume                     15304.714
_citation_journal_id_ASTM        BKCSDE
_cod_data_source_file            JeongGyoungHwa_BKCSDE_2002_1895.cif
_cod_data_source_block           Al92Cd32Cs28O384Si100
_cod_original_cell_volume        15304.71
_cod_database_code               1531644
loop_
_symmetry_equiv_pos_as_xyz
x,y,z
-x+1/4,-y+1/4,z
x,-y+1/4,-z+1/4
-x+1/4,y,-z+1/4
z,x,y
-z+1/4,-x+1/4,y
z,-x+1/4,-y+1/4
-z+1/4,x,-y+1/4
y,z,x
y,-z+1/4,-x+1/4
-y+1/4,z,-x+1/4
-y+1/4,-z+1/4,x
-x,-y,-z
x-1/4,y-1/4,-z
-x,y-1/4,z-1/4
x-1/4,-y,z-1/4
-z,-x,-y
z-1/4,x-1/4,-y
-z,x-1/4,y-1/4
z-1/4,-x,y-1/4
-y,-z,-x
-y,z-1/4,x-1/4
y-1/4,-z,x-1/4
y-1/4,z-1/4,-x
x,y+1/2,z+1/2
-x+1/4,-y+3/4,z+1/2
x,-y+3/4,-z+3/4
-x+1/4,y+1/2,-z+3/4
z,x+1/2,y+1/2
-z+1/4,-x+3/4,y+1/2
z,-x+3/4,-y+3/4
-z+1/4,x+1/2,-y+3/4
y,z+1/2,x+1/2
y,-z+3/4,-x+3/4
-y+1/4,z+1/2,-x+3/4
-y+1/4,-z+3/4,x+1/2
-x,-y+1/2,-z+1/2
x-1/4,y+1/4,-z+1/2
-x,y+1/4,z+1/4
x-1/4,-y+1/2,z+1/4
-z,-x+1/2,-y+1/2
z-1/4,x+1/4,-y+1/2
-z,x+1/4,y+1/4
z-1/4,-x+1/2,y+1/4
-y,-z+1/2,-x+1/2
-y,z+1/4,x+1/4
y-1/4,-z+1/2,x+1/4
y-1/4,z+1/4,-x+1/2
x+1/2,y,z+1/2
-x+3/4,-y+1/4,z+1/2
x+1/2,-y+1/4,-z+3/4
-x+3/4,y,-z+3/4
z+1/2,x,y+1/2
-z+3/4,-x+1/4,y+1/2
z+1/2,-x+1/4,-y+3/4
-z+3/4,x,-y+3/4
y+1/2,z,x+1/2
y+1/2,-z+1/4,-x+3/4
-y+3/4,z,-x+3/4
-y+3/4,-z+1/4,x+1/2
-x+1/2,-y,-z+1/2
x+1/4,y-1/4,-z+1/2
-x+1/2,y-1/4,z+1/4
x+1/4,-y,z+1/4
-z+1/2,-x,-y+1/2
z+1/4,x-1/4,-y+1/2
-z+1/2,x-1/4,y+1/4
z+1/4,-x,y+1/4
-y+1/2,-z,-x+1/2
-y+1/2,z-1/4,x+1/4
y+1/4,-z,x+1/4
y+1/4,z-1/4,-x+1/2
x+1/2,y+1/2,z
-x+3/4,-y+3/4,z
x+1/2,-y+3/4,-z+1/4
-x+3/4,y+1/2,-z+1/4
z+1/2,x+1/2,y
-z+3/4,-x+3/4,y
z+1/2,-x+3/4,-y+1/4
-z+3/4,x+1/2,-y+1/4
y+1/2,z+1/2,x
y+1/2,-z+3/4,-x+1/4
-y+3/4,z+1/2,-x+1/4
-y+3/4,-z+3/4,x
-x+1/2,-y+1/2,-z
x+1/4,y+1/4,-z
-x+1/2,y+1/4,z-1/4
x+1/4,-y+1/2,z-1/4
-z+1/2,-x+1/2,-y
z+1/4,x+1/4,-y
-z+1/2,x+1/4,y-1/4
z+1/4,-x+1/2,y-1/4
-y+1/2,-z+1/2,-x
-y+1/2,z+1/4,x-1/4
y+1/4,-z+1/2,x-1/4
y+1/4,z+1/4,-x
loop_
_atom_site_label
_atom_site_type_symbol
_atom_site_fract_x
_atom_site_fract_y
_atom_site_fract_z
_atom_site_occupancy
_atom_site_U_iso_or_equiv
Cs1 Cs+1 0.1631 0.1631 0.1631 0.1875 0.0
O2 O-2 -0.0028 -0.0036 0.1449 1 0.0
O3 O-2 -0.032 0.0658 0.0604 1 0.0
Cs3 Cs+1 0.4248 0.125 0.125 0.25 0.0
Cs2 Cs+1 0.2631 0.2631 0.2631 0.3125 0.0
Si2 Si+4 -0.0546 0.0368 0.122 0.0417 0.0
O1 O-2 0.8889 0.001 0.1059 1 0.0
Si1 Si+4 -0.0533 0.123 0.034 1 0.0
O4 O-2 -0.0649 0.0832 0.1714 1 0.0
Cd2 Cd+2 0.2194 0.2194 0.2194 0.5 0.0
Al1 Al+3 -0.0546 0.0368 0.122 0.9583 0.0
Cd1 Cd+2 0 0 0 1 0.0
