#------------------------------------------------------------------------------
#$Date: 2016-02-13 21:28:24 +0200 (Sat, 13 Feb 2016) $
#$Revision: 176429 $
#$URL: svn://www.crystallography.net/cod/cif/1/53/16/1531673.cif $
#------------------------------------------------------------------------------
#
# This file is available in the Crystallography Open Database (COD),
# http://www.crystallography.net/
#
# All data on this site have been placed in the public domain by the
# contributors.
#
data_1531673
loop_
_publ_author_name
'Joseph, J.'
'Vimala, T.M.'
Dias
'Murthy, V.R.K.'
_publ_section_title
;
 Structural investigations on Bax Pb1-x (Mg1/3 Nb2/3) O3 solid solutions
;
_journal_name_full               'Japanese Journal of Applied Physics, Part 1'
_journal_page_first              3010
_journal_page_last               3014
_journal_volume                  41
_journal_year                    2002
_chemical_formula_sum            'Mg0.283 Nb0.717 O3 Pb'
_chemical_name_systematic        'Pb (Mg0.283 Nb0.717) O3'
_space_group_IT_number           221
_symmetry_space_group_name_Hall  '-P 4 2 3'
_symmetry_space_group_name_H-M   'P m -3 m'
_cell_angle_alpha                90
_cell_angle_beta                 90
_cell_angle_gamma                90
_cell_formula_units_Z            1
_cell_length_a                   4.042
_cell_length_b                   4.042
_cell_length_c                   4.042
_cell_volume                     66.037
_citation_journal_id_ASTM        JAPNDE
_cod_data_source_file            Joseph_JAPNDE_2002_690.cif
_cod_data_source_block           Mg0.283Nb0.717O3Pb1
_cod_original_cell_volume        66.03723
_cod_original_formula_sum        'Mg0.283 Nb0.717 O3 Pb1'
_cod_database_code               1531673
loop_
_symmetry_equiv_pos_as_xyz
x,y,z
-y,x,z
-x,-y,z
y,-x,z
x,-y,-z
y,x,-z
-x,y,-z
-y,-x,-z
z,x,y
-x,z,y
-z,-x,y
x,-z,y
z,-x,-y
x,z,-y
-z,x,-y
-x,-z,-y
y,z,x
y,-z,-x
z,y,-x
-y,z,-x
-z,-y,-x
-y,-z,x
z,-y,x
-z,y,x
-x,-y,-z
y,-x,-z
x,y,-z
-y,x,-z
-x,y,z
-y,-x,z
x,-y,z
y,x,z
-z,-x,-y
x,-z,-y
z,x,-y
-x,z,-y
-z,x,y
-x,-z,y
z,-x,y
x,z,y
-y,-z,-x
-y,z,x
-z,-y,x
y,-z,x
z,y,x
y,z,-x
-z,y,-x
z,-y,-x
loop_
_atom_site_label
_atom_site_type_symbol
_atom_site_fract_x
_atom_site_fract_y
_atom_site_fract_z
_atom_site_occupancy
_atom_site_U_iso_or_equiv
Mg1 Mg+2 0.5 0.5 0.5 0.283 0.0
Nb1 Nb+4 0.5 0.5 0.5 0.717 0.0
Pb1 Pb+2 0 0 0 1 0.0
O1 O-2 0.5 0.5 0 1 0.0
