#------------------------------------------------------------------------------
#$Date: 2015-09-18 08:12:49 +0300 (Fri, 18 Sep 2015) $
#$Revision: 157766 $
#$URL: svn://www.crystallography.net/cod/cif/1/53/21/1532126.cif $
#------------------------------------------------------------------------------
#
# This file is available in the Crystallography Open Database (COD),
# http://www.crystallography.net/
#
# All data on this site have been placed in the public domain by the
# contributors.
#
data_1532126
loop_
_publ_author_name
'Rozier, P.'
'Ratuszna, A.'
'Galy, J.'
_publ_section_title
;
 Comparative structural and electrical studies of V2 O3 and V2-x Nix O3 (0
 < x < 0.75) solid solution
;
_journal_name_full
'Zeitschrift fuer Anorganische und Allgemeine Chemie'
_journal_page_first              1236
_journal_page_last               1242
_journal_volume                  628
_journal_year                    2002
_chemical_formula_sum            'Ni0.05 O3 V1.95'
_chemical_name_systematic        '(V1.95 Ni0.05) O3'
_space_group_IT_number           167
_symmetry_space_group_name_Hall  '-R 3 2"c'
_symmetry_space_group_name_H-M   'R -3 c :H'
_cell_angle_alpha                90
_cell_angle_beta                 90
_cell_angle_gamma                120
_cell_formula_units_Z            6
_cell_length_a                   4.9536
_cell_length_b                   4.9536
_cell_length_c                   13.9947
_cell_volume                     297.397
_citation_journal_id_ASTM        ZAACAB
_cod_data_source_file            Rozier_ZAACAB_2002_964.cif
_cod_data_source_block           Ni0.05O3V1.95
_cod_original_cell_volume        297.3967
_cod_database_code               1532126
loop_
_symmetry_equiv_pos_as_xyz
x,y,z
-y,x-y,z
-x+y,-x,z
y,x,-z+1/2
-x,-x+y,-z+1/2
x-y,-y,-z+1/2
-x,-y,-z
y,-x+y,-z
x-y,x,-z
-y,-x,z-1/2
x,x-y,z-1/2
-x+y,y,z-1/2
x+2/3,y+1/3,z+1/3
-y+2/3,x-y+1/3,z+1/3
-x+y+2/3,-x+1/3,z+1/3
y+2/3,x+1/3,-z+5/6
-x+2/3,-x+y+1/3,-z+5/6
x-y+2/3,-y+1/3,-z+5/6
-x+2/3,-y+1/3,-z+1/3
y+2/3,-x+y+1/3,-z+1/3
x-y+2/3,x+1/3,-z+1/3
-y+2/3,-x+1/3,z-1/6
x+2/3,x-y+1/3,z-1/6
-x+y+2/3,y+1/3,z-1/6
x+1/3,y+2/3,z+2/3
-y+1/3,x-y+2/3,z+2/3
-x+y+1/3,-x+2/3,z+2/3
y+1/3,x+2/3,-z+7/6
-x+1/3,-x+y+2/3,-z+7/6
x-y+1/3,-y+2/3,-z+7/6
-x+1/3,-y+2/3,-z+2/3
y+1/3,-x+y+2/3,-z+2/3
x-y+1/3,x+2/3,-z+2/3
-y+1/3,-x+2/3,z+1/6
x+1/3,x-y+2/3,z+1/6
-x+y+1/3,y+2/3,z+1/6
loop_
_atom_site_label
_atom_site_type_symbol
_atom_site_fract_x
_atom_site_fract_y
_atom_site_fract_z
_atom_site_occupancy
_atom_site_U_iso_or_equiv
Ni1 Ni+2 0 0 0.3462 0.025 0.0
O1 O-2 0.3135 0 0.25 1 0.0
V1 V+3 0 0 0.3462 0.975 0.0
