#------------------------------------------------------------------------------
#$Date: 2016-02-13 21:28:24 +0200 (Sat, 13 Feb 2016) $
#$Revision: 176429 $
#$URL: svn://www.crystallography.net/cod/cif/1/53/23/1532373.cif $
#------------------------------------------------------------------------------
#
# This file is available in the Crystallography Open Database (COD),
# http://www.crystallography.net/
#
# All data on this site have been placed in the public domain by the
# contributors.
#
data_1532373
loop_
_publ_author_name
'Wu, G.-Q.'
'Ling, C.D.'
'Neumeier, J.J.'
'Argyriou, D.N.'
_publ_section_title
;
 Temperature evolution of the crystal structure of La2-x Srx Ni O4 (x =
 1/4 and 1/3) as revealed through neutron powder diffraction
;
_journal_name_full
'Physical Review, Serie 3. B - Condensed Matter (18,1978-)'
_journal_page_first              1741131
_journal_page_last               1741138
_journal_volume                  65
_journal_year                    2002
_chemical_formula_sum            'La1.667 Ni O4 Sr0.333'
_chemical_name_systematic        '(La1.667 Sr0.333) (Ni O4)'
_space_group_IT_number           139
_symmetry_space_group_name_Hall  '-I 4 2'
_symmetry_space_group_name_H-M   'I 4/m m m'
_cell_angle_alpha                90
_cell_angle_beta                 90
_cell_angle_gamma                90
_cell_formula_units_Z            2
_cell_length_a                   3.81495
_cell_length_b                   3.81495
_cell_length_c                   12.68493
_cell_volume                     184.614
_citation_journal_id_ASTM        PRBMDO
_cod_data_source_file            Wu_PRBMDO_2002_820.cif
_cod_data_source_block           La1.667Ni1O4Sr0.333
_cod_original_cell_volume        184.6145
_cod_original_formula_sum        'La1.667 Ni1 O4 Sr0.333'
_cod_database_code               1532373
loop_
_symmetry_equiv_pos_as_xyz
x,y,z
-y,x,z
-x,-y,z
y,-x,z
x,-y,-z
y,x,-z
-x,y,-z
-y,-x,-z
-x,-y,-z
y,-x,-z
x,y,-z
-y,x,-z
-x,y,z
-y,-x,z
x,-y,z
y,x,z
x+1/2,y+1/2,z+1/2
-y+1/2,x+1/2,z+1/2
-x+1/2,-y+1/2,z+1/2
y+1/2,-x+1/2,z+1/2
x+1/2,-y+1/2,-z+1/2
y+1/2,x+1/2,-z+1/2
-x+1/2,y+1/2,-z+1/2
-y+1/2,-x+1/2,-z+1/2
-x+1/2,-y+1/2,-z+1/2
y+1/2,-x+1/2,-z+1/2
x+1/2,y+1/2,-z+1/2
-y+1/2,x+1/2,-z+1/2
-x+1/2,y+1/2,z+1/2
-y+1/2,-x+1/2,z+1/2
x+1/2,-y+1/2,z+1/2
y+1/2,x+1/2,z+1/2
loop_
_atom_site_label
_atom_site_type_symbol
_atom_site_fract_x
_atom_site_fract_y
_atom_site_fract_z
_atom_site_occupancy
_atom_site_U_iso_or_equiv
Ni1 Ni+2 0 0 0 1 0.0
O1 O-2 0 0 0.17373 1 0.0
O2 O-2 0.5 0 0 1 0.0
Sr1 Sr+2 0 0 0.36187 0.167 0.0
La1 La+3 0 0 0.36187 0.833 0.0
