#------------------------------------------------------------------------------
#$Date: 2015-09-29 08:42:45 +0300 (Tue, 29 Sep 2015) $
#$Revision: 158905 $
#$URL: svn://www.crystallography.net/cod/cif/1/53/28/1532897.cif $
#------------------------------------------------------------------------------
#
# This file is available in the Crystallography Open Database (COD),
# http://www.crystallography.net/
#
# All data on this site have been placed in the public domain by the
# contributors.
#
data_1532897
loop_
_publ_author_name
'Jennings, A.J.'
'Skinner, S.J.'
'Helgason, O.'
_publ_section_title
;
 Lax Sr2-x Fey Ru1-y O4+d: a new family of K2 Ni F4 type oxides
;
_journal_name_full               'Journal of Solid State Chemistry'
_journal_page_first              45
_journal_page_last               54
_journal_volume                  177
_journal_year                    2004
_chemical_formula_sum            'Fe0.92 La1.17 O4 Ru0.08 Sr0.83'
_chemical_name_systematic        '(La1.17 Sr0.83) ((Fe0.92 Ru0.08) O4)'
_space_group_IT_number           139
_symmetry_space_group_name_Hall  '-I 4 2'
_symmetry_space_group_name_H-M   'I 4/m m m'
_cell_angle_alpha                90
_cell_angle_beta                 90
_cell_angle_gamma                90
_cell_formula_units_Z            2
_cell_length_a                   3.87367
_cell_length_b                   3.87367
_cell_length_c                   12.7361
_cell_volume                     191.109
_citation_journal_id_ASTM        JSSCBI
_cod_data_source_file            Jennings_JSSCBI_2004_1844.cif
_cod_data_source_block           Fe0.92La1.17O4Ru0.08Sr0.83
_cod_original_cell_volume        191.1093
_cod_database_code               1532897
loop_
_symmetry_equiv_pos_as_xyz
x,y,z
-y,x,z
-x,-y,z
y,-x,z
x,-y,-z
y,x,-z
-x,y,-z
-y,-x,-z
-x,-y,-z
y,-x,-z
x,y,-z
-y,x,-z
-x,y,z
-y,-x,z
x,-y,z
y,x,z
x+1/2,y+1/2,z+1/2
-y+1/2,x+1/2,z+1/2
-x+1/2,-y+1/2,z+1/2
y+1/2,-x+1/2,z+1/2
x+1/2,-y+1/2,-z+1/2
y+1/2,x+1/2,-z+1/2
-x+1/2,y+1/2,-z+1/2
-y+1/2,-x+1/2,-z+1/2
-x+1/2,-y+1/2,-z+1/2
y+1/2,-x+1/2,-z+1/2
x+1/2,y+1/2,-z+1/2
-y+1/2,x+1/2,-z+1/2
-x+1/2,y+1/2,z+1/2
-y+1/2,-x+1/2,z+1/2
x+1/2,-y+1/2,z+1/2
y+1/2,x+1/2,z+1/2
loop_
_atom_site_label
_atom_site_type_symbol
_atom_site_fract_x
_atom_site_fract_y
_atom_site_fract_z
_atom_site_occupancy
_atom_site_U_iso_or_equiv
O2 O-2 0 0 0.1662 1 0.0
Sr1 Sr+2 0 0 0.35792 0.415 0.0
O1 O-2 0 0.5 0 1 0.0
La1 La+3 0 0 0.35792 0.585 0.0
Fe1 Fe+2 0 0 0 0.923 0.0
Ru1 Ru+5 0 0 0 0.077 0.0
