#------------------------------------------------------------------------------
#$Date: 2015-09-18 07:42:31 +0300 (Fri, 18 Sep 2015) $
#$Revision: 157695 $
#$URL: svn://www.crystallography.net/cod/cif/1/53/20/1532075.cif $
#------------------------------------------------------------------------------
#
# This file is available in the Crystallography Open Database (COD),
# http://www.crystallography.net/
#
# All data on this site have been placed in the public domain by the
# contributors.
#
data_1532075
loop_
_publ_author_name
'Riley, P.E.'
'Seff, K.'
_publ_section_title
;
 The Crystal Structure of Hydrated and Dehydrated Thallium-Exchanged
 Zeolite A
;
_journal_name_full               'Journal of Physical Chemistry'
_journal_page_first              2593
_journal_page_last               2597
_journal_volume                  76
_journal_year                    1972
_chemical_formula_sum            'Al11 O48 Si13 Tl11'
_chemical_name_systematic        'Tl11 Al11 Si13 O48'
_space_group_IT_number           221
_symmetry_space_group_name_Hall  '-P 4 2 3'
_symmetry_space_group_name_H-M   'P m -3 m'
_cell_angle_alpha                90
_cell_angle_beta                 90
_cell_angle_gamma                90
_cell_formula_units_Z            1
_cell_length_a                   12.17
_cell_length_b                   12.17
_cell_length_c                   12.17
_cell_volume                     1802.485
_citation_journal_id_ASTM        JPCHAX
_cod_data_source_file            Riley_JPCHAX_1972_161.cif
_cod_data_source_block           Al11O48Si13Tl11
_cod_database_code               1532075
loop_
_symmetry_equiv_pos_as_xyz
x,y,z
-y,x,z
-x,-y,z
y,-x,z
x,-y,-z
y,x,-z
-x,y,-z
-y,-x,-z
z,x,y
-x,z,y
-z,-x,y
x,-z,y
z,-x,-y
x,z,-y
-z,x,-y
-x,-z,-y
y,z,x
y,-z,-x
z,y,-x
-y,z,-x
-z,-y,-x
-y,-z,x
z,-y,x
-z,y,x
-x,-y,-z
y,-x,-z
x,y,-z
-y,x,-z
-x,y,z
-y,-x,z
x,-y,z
y,x,z
-z,-x,-y
x,-z,-y
z,x,-y
-x,z,-y
-z,x,y
-x,-z,y
z,-x,y
x,z,y
-y,-z,-x
-y,z,x
-z,-y,x
y,-z,x
z,y,x
y,z,-x
-z,y,-x
z,-y,-x
loop_
_atom_site_label
_atom_site_type_symbol
_atom_site_fract_x
_atom_site_fract_y
_atom_site_fract_z
_atom_site_occupancy
_atom_site_U_iso_or_equiv
Al1 Al+3 0 0.183 0.368 0.4583 0.0
Si1 Si+4 0 0.183 0.368 0.5417 0.0
Tl2 Tl+1 0.1 0.1 0.1 0.125 0.0
O1 O-2 0 0.204 0.5 1 0.0
O2 O-2 0 0.306 0.306 1 0.0
Tl1 Tl+1 0.2591 0.2591 0.2591 0.875 0.0
O3 O-2 0.114 0.114 0.33 1 0.0
Tl3 Tl+1 0 0.457 0.457 0.25 0.0
