#------------------------------------------------------------------------------
#$Date: 2018-09-27 07:13:35 +0300 (Thu, 27 Sep 2018) $
#$Revision: 211196 $
#$URL: file:///home/coder/svn-repositories/cod/cif/1/53/23/1532330.cif $
#------------------------------------------------------------------------------
#
# This file is available in the Crystallography Open Database (COD),
# http://www.crystallography.net/
#
# All data on this site have been placed in the public domain by the
# contributors.
#
data_1532330
loop_
_publ_author_name
'Speakman, S.A.'
'Misture, S.T.'
'Mitchell, B.J.'
'Richardson, J.W.jr.'
_publ_section_title
;
 In-situ diffraction study of Ba2 In2 O5
;
_journal_name_full               'Solid State Ionics'
_journal_page_first              247
_journal_page_last               259
_journal_volume                  149
_journal_year                    2002
_chemical_formula_sum            'Ba2.08 In2.11 O5'
_space_group_IT_number           108
_symmetry_space_group_name_Hall  'I 4 -2c'
_symmetry_space_group_name_H-M   'I 4 c m'
_cell_angle_alpha                90
_cell_angle_beta                 90
_cell_angle_gamma                90
_cell_formula_units_Z            4
_cell_length_a                   6.0468
_cell_length_b                   6.0468
_cell_length_c                   17.1116
_cell_volume                     625.665
_citation_journal_id_ASTM        SSIOD3
_cod_data_source_file            Speakman_SSIOD3_2002_850.cif
_cod_data_source_block           Ba2.08In2.11O5
_cod_database_code               1532330
loop_
_symmetry_equiv_pos_as_xyz
x,y,z
-y,x,z
-x,-y,z
y,-x,z
-x,y,z+1/2
-y,-x,z+1/2
x,-y,z+1/2
y,x,z+1/2
x+1/2,y+1/2,z+1/2
-y+1/2,x+1/2,z+1/2
-x+1/2,-y+1/2,z+1/2
y+1/2,-x+1/2,z+1/2
-x+1/2,y+1/2,z+1
-y+1/2,-x+1/2,z+1
x+1/2,-y+1/2,z+1
y+1/2,x+1/2,z+1
loop_
_atom_site_label
_atom_site_type_symbol
_atom_site_fract_x
_atom_site_fract_y
_atom_site_fract_z
_atom_site_occupancy
_atom_site_U_iso_or_equiv
O1 O-2 0.2484 0.7484 0.0129 1 0.0
O3 O-2 0 0 0.3662 1 0.0
O2 O-2 0 0 0.122 1 0.0
In2 In+2 0 0 0.2405 1.048 0.0
In1 In+2 0 0 -0.0005 1.065 0.0
Ba2 Ba+2 0 0.5 0.3793 1.041 0.0
O4 O-2 0.2349 0.7349 0.2512 0.5 0.0
Ba1 Ba+2 0 0.5 0.1093 1.044 0.0
