#------------------------------------------------------------------------------
#$Date: 2015-09-19 00:15:58 +0300 (Sat, 19 Sep 2015) $
#$Revision: 157955 $
#$URL: svn://www.crystallography.net/cod/cif/1/53/22/1532270.cif $
#------------------------------------------------------------------------------
#
# This file is available in the Crystallography Open Database (COD),
# http://www.crystallography.net/
#
# All data on this site have been placed in the public domain by the
# contributors.
#
data_1532270
loop_
_publ_author_name
'Toulemonde, P.'
'Odier, P.'
'Bordet, P.'
'Brachet, C.'
'Suard, E.'
_publ_section_title
;
 Crystal structure of (Hg1-y Pby)2 Ba2 (Y1-x Cax) Cu2 O8-d superconducting
 compounds by neutron powder diffraction
;
_journal_name_full               'Physica C (Amsterdam)'
_journal_page_first              146
_journal_page_last               155
_journal_volume                  377
_journal_year                    2002
_chemical_formula_sum            'Ba2 Ca0.26 Cu2 Hg1.75 O7.98 Pb0.25 Y0.74'
_chemical_name_systematic
'(Hg0.875 Pb0.125)2 Ba2 (Y0.74 Ca0.26) Cu2 O7.98'
_space_group_IT_number           139
_symmetry_space_group_name_Hall  '-I 4 2'
_symmetry_space_group_name_H-M   'I 4/m m m'
_cell_angle_alpha                90
_cell_angle_beta                 90
_cell_angle_gamma                90
_cell_formula_units_Z            2
_cell_length_a                   3.85742
_cell_length_b                   3.85742
_cell_length_c                   28.8228
_cell_volume                     428.874
_citation_journal_id_ASTM        PHYCE6
_cod_data_source_file            Toulemonde_PHYCE6_2002_1210.cif
_cod_data_source_block           Ba2Ca0.26Cu2Hg1.75O7.98Pb0.25Y0.74
_cod_original_cell_volume        428.8743
_cod_database_code               1532270
loop_
_symmetry_equiv_pos_as_xyz
x,y,z
-y,x,z
-x,-y,z
y,-x,z
x,-y,-z
y,x,-z
-x,y,-z
-y,-x,-z
-x,-y,-z
y,-x,-z
x,y,-z
-y,x,-z
-x,y,z
-y,-x,z
x,-y,z
y,x,z
x+1/2,y+1/2,z+1/2
-y+1/2,x+1/2,z+1/2
-x+1/2,-y+1/2,z+1/2
y+1/2,-x+1/2,z+1/2
x+1/2,-y+1/2,-z+1/2
y+1/2,x+1/2,-z+1/2
-x+1/2,y+1/2,-z+1/2
-y+1/2,-x+1/2,-z+1/2
-x+1/2,-y+1/2,-z+1/2
y+1/2,-x+1/2,-z+1/2
x+1/2,y+1/2,-z+1/2
-y+1/2,x+1/2,-z+1/2
-x+1/2,y+1/2,z+1/2
-y+1/2,-x+1/2,z+1/2
x+1/2,-y+1/2,z+1/2
y+1/2,x+1/2,z+1/2
loop_
_atom_site_label
_atom_site_type_symbol
_atom_site_fract_x
_atom_site_fract_y
_atom_site_fract_z
_atom_site_occupancy
_atom_site_U_iso_or_equiv
Cu1 Cu+2 0 0 0.05672 1 0.0
Hg1 Hg+2 0 0 0.21243 0.875 0.0
Y1 Y+3 0.5 0.5 0 0.74 0.0
Ca1 Ca+2 0.5 0.5 0 0.26 0.0
O1 O-2 0.5 0 0.05031 1 0.0
O3 O-2 0.584 0.584 0.2157 0.248 0.0
Ba1 Ba+2 0.5 0.5 0.1256 1 0.0
Pb1 Pb+4 0 0 0.21243 0.125 0.0
O2 O-2 0 0 0.1415 1 0.0
