#------------------------------------------------------------------------------
#$Date: 2016-02-13 21:28:24 +0200 (Sat, 13 Feb 2016) $
#$Revision: 176429 $
#$URL: svn://www.crystallography.net/cod/cif/1/53/23/1532335.cif $
#------------------------------------------------------------------------------
#
# This file is available in the Crystallography Open Database (COD),
# http://www.crystallography.net/
#
# All data on this site have been placed in the public domain by the
# contributors.
#
data_1532335
loop_
_publ_author_name
'Wong-Ng, W.'
'Kaduk, J.A.'
'Dillingham, J.'
_publ_section_title
;
 Crystal structures and reference diffraction patterns of Ba Sr R4 O9
;
_journal_name_full               'Powder Diffraction'
_journal_page_first              202
_journal_page_last               209
_journal_volume                  17
_journal_year                    2002
_chemical_formula_sum            'Ba La4 O8 Sr'
_chemical_name_systematic        'Ba Sr La4 O8'
_space_group_IT_number           62
_symmetry_space_group_name_Hall  '-P 2ac 2n'
_symmetry_space_group_name_H-M   'P n m a'
_cell_angle_alpha                90
_cell_angle_beta                 90
_cell_angle_gamma                90
_cell_formula_units_Z            2
_cell_length_a                   10.5501
_cell_length_b                   3.692
_cell_length_c                   12.5663
_cell_volume                     489.470
_citation_journal_id_ASTM        PODIE2
_cod_data_source_file            Wong-Ng_PODIE2_2002_1993.cif
_cod_data_source_block           Ba1La4O8Sr1
_cod_original_cell_volume        489.4696
_cod_original_formula_sum        'Ba1 La4 O8 Sr1'
_cod_database_code               1532335
loop_
_symmetry_equiv_pos_as_xyz
x,y,z
-x+1/2,-y,z+1/2
x+1/2,-y+1/2,-z+1/2
-x,y+1/2,-z
-x,-y,-z
x-1/2,y,-z-1/2
-x-1/2,y-1/2,z-1/2
x,-y-1/2,z
loop_
_atom_site_label
_atom_site_type_symbol
_atom_site_fract_x
_atom_site_fract_y
_atom_site_fract_z
_atom_site_occupancy
_atom_site_U_iso_or_equiv
O4 O-2 0.4441 0.25 0.4184 1 0.0
O1 O-2 0.2096 0.25 0.1858 1 0.0
Sr1 Sr+2 0.7467 0.25 0.6455 0.5 0.0
O2 O-2 0.1201 0.25 0.489 1 0.0
Ba1 Ba+2 0.7467 0.25 0.6455 0.5 0.0
O3 O-2 0.5132 0.25 0.7786 1 0.0
La2 La+3 0.4226 0.25 0.1116 1 0.0
La1 La+3 0.4101 0.25 0.6101 1 0.0
