#------------------------------------------------------------------------------
#$Date: 2015-09-28 13:08:54 +0300 (Mon, 28 Sep 2015) $
#$Revision: 158528 $
#$URL: svn://www.crystallography.net/cod/cif/1/53/25/1532591.cif $
#------------------------------------------------------------------------------
#
# This file is available in the Crystallography Open Database (COD),
# http://www.crystallography.net/
#
# All data on this site have been placed in the public domain by the
# contributors.
#
data_1532591
loop_
_publ_author_name
'Ishigaki, T.'
'Ogasawara, Y.'
_publ_section_title
;
 Synthesis and properties of Ti Sr2 (RE1-x Cex)2 Cu2 Oz (RE = Sm, Eu, Gd)
;
_journal_name_full               'Physica C (Amsterdam)'
_journal_page_first              397
_journal_page_last               398
_journal_volume                  388
_journal_year                    2003
_chemical_formula_sum            'Ce0.6 Cu2.26 O8.96 Sm1.4 Sr2 Ti0.74'
_chemical_name_systematic
'(Ti0.74 Cu0.26) Sr2 (Sm0.7 Ce0.3)2 Cu2 O8.96'
_space_group_IT_number           139
_symmetry_space_group_name_Hall  '-I 4 2'
_symmetry_space_group_name_H-M   'I 4/m m m'
_cell_angle_alpha                90
_cell_angle_beta                 90
_cell_angle_gamma                90
_cell_formula_units_Z            2
_cell_length_a                   3.85486
_cell_length_b                   3.85486
_cell_length_c                   28.3511
_cell_volume                     421.296
_citation_journal_id_ASTM        PHYCE6
_cod_data_source_file            Ishigaki_PHYCE6_2003_872.cif
_cod_data_source_block           Ce0.6Cu2.26O8.96Sm1.4Sr2Ti0.74
_cod_original_cell_volume        421.2958
_cod_database_code               1532591
loop_
_symmetry_equiv_pos_as_xyz
x,y,z
-y,x,z
-x,-y,z
y,-x,z
x,-y,-z
y,x,-z
-x,y,-z
-y,-x,-z
-x,-y,-z
y,-x,-z
x,y,-z
-y,x,-z
-x,y,z
-y,-x,z
x,-y,z
y,x,z
x+1/2,y+1/2,z+1/2
-y+1/2,x+1/2,z+1/2
-x+1/2,-y+1/2,z+1/2
y+1/2,-x+1/2,z+1/2
x+1/2,-y+1/2,-z+1/2
y+1/2,x+1/2,-z+1/2
-x+1/2,y+1/2,-z+1/2
-y+1/2,-x+1/2,-z+1/2
-x+1/2,-y+1/2,-z+1/2
y+1/2,-x+1/2,-z+1/2
x+1/2,y+1/2,-z+1/2
-y+1/2,x+1/2,-z+1/2
-x+1/2,y+1/2,z+1/2
-y+1/2,-x+1/2,z+1/2
x+1/2,-y+1/2,z+1/2
y+1/2,x+1/2,z+1/2
loop_
_atom_site_label
_atom_site_type_symbol
_atom_site_fract_x
_atom_site_fract_y
_atom_site_fract_z
_atom_site_occupancy
_atom_site_U_iso_or_equiv
O4 O-2 0 0.5 0.25 1 0.0
O2 O-2 0 0 0.0624 1 0.0
O3 O-2 0 0.5 0.1458 1 0.0
Cu1 Cu+2 0 0 0 0.26 0.0
O1 O-2 0.193 0 0.5 0.24 0.0
Sr1 Sr+2 0 0 0.42079 1 0.0
Cu2 Cu+2 0 0 0.1418 1 0.0
Ti1 Ti+4 0 0 0 0.74 0.0
Sm1 Sm+3 0 0 0.29444 0.7 0.0
Ce1 Ce+3 0 0 0.29444 0.3 0.0
