#------------------------------------------------------------------------------
#$Date: 2015-09-28 12:40:51 +0300 (Mon, 28 Sep 2015) $
#$Revision: 158463 $
#$URL: svn://www.crystallography.net/cod/cif/1/53/25/1532534.cif $
#------------------------------------------------------------------------------
#
# This file is available in the Crystallography Open Database (COD),
# http://www.crystallography.net/
#
# All data on this site have been placed in the public domain by the
# contributors.
#
data_1532534
loop_
_publ_author_name
'Kuz'micheva, G.M.'
'Andreenko, A.S.'
'Khlybov, E.P.'
'Kostyleva, I.E.'
'Esaulova, Yu.V.'
_publ_section_title
;
 Synthesis, crystal structure and properties of superconducting and
 non-superconducting Ru Sr2 (Nd, Ce)2 Cu2 O10 phases
;
_journal_name_full               'Physica C (Amsterdam)'
_journal_page_first              315
_journal_page_last               322
_journal_volume                  383
_journal_year                    2003
_chemical_formula_sum            'Ce0.8 Cu2.41 Nd2.08 O10 Ru0.59 Sr1.12'
_chemical_name_systematic
;
(Ru0.59 Cu0.41) (Sr1.12 Nd0.88) (Nd1.2 Ce0.8) Cu2 O10
;
_space_group_IT_number           139
_symmetry_space_group_name_Hall  '-I 4 2'
_symmetry_space_group_name_H-M   'I 4/m m m'
_cell_angle_alpha                90
_cell_angle_beta                 90
_cell_angle_gamma                90
_cell_formula_units_Z            2
_cell_length_a                   3.87
_cell_length_b                   3.87
_cell_length_c                   28.487
_cell_volume                     426.647
_citation_journal_id_ASTM        PHYCE6
_cod_data_source_file            Kuzmicheva_PHYCE6_2003_588.cif
_cod_data_source_block           Ce0.8Cu2.41Nd2.08O10Ru0.59Sr1.12
_cod_original_cell_volume        426.6469
_cod_database_code               1532534
loop_
_symmetry_equiv_pos_as_xyz
x,y,z
-y,x,z
-x,-y,z
y,-x,z
x,-y,-z
y,x,-z
-x,y,-z
-y,-x,-z
-x,-y,-z
y,-x,-z
x,y,-z
-y,x,-z
-x,y,z
-y,-x,z
x,-y,z
y,x,z
x+1/2,y+1/2,z+1/2
-y+1/2,x+1/2,z+1/2
-x+1/2,-y+1/2,z+1/2
y+1/2,-x+1/2,z+1/2
x+1/2,-y+1/2,-z+1/2
y+1/2,x+1/2,-z+1/2
-x+1/2,y+1/2,-z+1/2
-y+1/2,-x+1/2,-z+1/2
-x+1/2,-y+1/2,-z+1/2
y+1/2,-x+1/2,-z+1/2
x+1/2,y+1/2,-z+1/2
-y+1/2,x+1/2,-z+1/2
-x+1/2,y+1/2,z+1/2
-y+1/2,-x+1/2,z+1/2
x+1/2,-y+1/2,z+1/2
y+1/2,x+1/2,z+1/2
loop_
_atom_site_label
_atom_site_type_symbol
_atom_site_fract_x
_atom_site_fract_y
_atom_site_fract_z
_atom_site_occupancy
_atom_site_U_iso_or_equiv
Sr1 Sr+2 0 0 0.4234 0.56 0.0
Cu2 Cu+2 0 0 0.1406 1 0.0
Nd2 Nd+3 0 0 0.2957 0.6 0.0
Ce1 Ce+4 0 0 0.2957 0.4 0.0
O1 O-2 0.139 0.5 0 0.5 0.0
Nd1 Nd+3 0 0 0.4234 0.44 0.0
O2 O-2 0 0 0.0677 1 0.0
O3 O-2 0 0.5 0.1394 1 0.0
O4 O-2 0 0.5 0.25 1 0.0
Ru1 Ru+5 0.062 0 0 0.147 0.0
Cu1 Cu+2 0.062 0 0 0.103 0.0
