#------------------------------------------------------------------------------
#$Date: 2016-02-13 21:28:24 +0200 (Sat, 13 Feb 2016) $
#$Revision: 176429 $
#$URL: svn://www.crystallography.net/cod/cif/1/53/29/1532989.cif $
#------------------------------------------------------------------------------
#
# This file is available in the Crystallography Open Database (COD),
# http://www.crystallography.net/
#
# All data on this site have been placed in the public domain by the
# contributors.
#
data_1532989
loop_
_publ_author_name
'Kang Eun-Tae'
'Kwon Young-Jean'
_publ_section_title
;
 The structure determination of La0.667-x Li3x (vac)0.333-2x Ti O3 by the
 powder neutron and X-ray diffraction
;
_journal_name_full               'Journal of the Korean Ceramic Society'
_journal_page_first              513
_journal_page_last               518
_journal_volume                  40
_journal_year                    2003
_chemical_formula_sum            'La0.522 Li0.432 O3 Ti'
_chemical_name_systematic        'La0.522 Li0.432 (Ti O3)'
_space_group_IT_number           167
_symmetry_space_group_name_Hall  '-R 3 2"c'
_symmetry_space_group_name_H-M   'R -3 c :H'
_cell_angle_alpha                90
_cell_angle_beta                 90
_cell_angle_gamma                120
_cell_formula_units_Z            6
_cell_length_a                   5.4807
_cell_length_b                   5.4807
_cell_length_c                   13.4214
_cell_volume                     349.141
_citation_journal_id_ASTM        JKCSBW
_cod_data_source_file            KangEun-Tae_JKCSBW_2003_770.cif
_cod_data_source_block           La0.522Li0.432O3Ti1
_cod_original_cell_volume        349.1407
_cod_original_formula_sum        'La0.522 Li0.432 O3 Ti1'
_cod_database_code               1532989
loop_
_symmetry_equiv_pos_as_xyz
x,y,z
-y,x-y,z
-x+y,-x,z
y,x,-z+1/2
-x,-x+y,-z+1/2
x-y,-y,-z+1/2
-x,-y,-z
y,-x+y,-z
x-y,x,-z
-y,-x,z-1/2
x,x-y,z-1/2
-x+y,y,z-1/2
x+2/3,y+1/3,z+1/3
-y+2/3,x-y+1/3,z+1/3
-x+y+2/3,-x+1/3,z+1/3
y+2/3,x+1/3,-z+5/6
-x+2/3,-x+y+1/3,-z+5/6
x-y+2/3,-y+1/3,-z+5/6
-x+2/3,-y+1/3,-z+1/3
y+2/3,-x+y+1/3,-z+1/3
x-y+2/3,x+1/3,-z+1/3
-y+2/3,-x+1/3,z-1/6
x+2/3,x-y+1/3,z-1/6
-x+y+2/3,y+1/3,z-1/6
x+1/3,y+2/3,z+2/3
-y+1/3,x-y+2/3,z+2/3
-x+y+1/3,-x+2/3,z+2/3
y+1/3,x+2/3,-z+7/6
-x+1/3,-x+y+2/3,-z+7/6
x-y+1/3,-y+2/3,-z+7/6
-x+1/3,-y+2/3,-z+2/3
y+1/3,-x+y+2/3,-z+2/3
x-y+1/3,x+2/3,-z+2/3
-y+1/3,-x+2/3,z+1/6
x+1/3,x-y+2/3,z+1/6
-x+y+1/3,y+2/3,z+1/6
loop_
_atom_site_label
_atom_site_type_symbol
_atom_site_fract_x
_atom_site_fract_y
_atom_site_fract_z
_atom_site_occupancy
_atom_site_U_iso_or_equiv
La1 La+3 0 0 0.25 0.522 0.0
Ti1 Ti+4 0 0 0 1 0.0
O1 O-2 0.5285 0 0.25 1 0.0
Li1 Li+1 0.5 0 0 0.144 0.0
