#------------------------------------------------------------------------------
#$Date: 2016-02-13 21:28:24 +0200 (Sat, 13 Feb 2016) $
#$Revision: 176429 $
#$URL: svn://www.crystallography.net/cod/cif/1/53/26/1532648.cif $
#------------------------------------------------------------------------------
#
# This file is available in the Crystallography Open Database (COD),
# http://www.crystallography.net/
#
# All data on this site have been placed in the public domain by the
# contributors.
#
data_1532648
loop_
_publ_author_name
'Vyshatko, N.P.'
'Kharton, V.'
'Shaula, A.L.'
'Marques, F.M.B.'
'Naumovich, E.N.'
_publ_section_title
;
 Structural characterization of mixed conducting perovskites La (Ga,M)
 O3-d (M = Mn, Fe, Co, Ni)
;
_journal_name_full               'Materials Research Bulletin'
_journal_page_first              185
_journal_page_last               193
_journal_volume                  38
_journal_year                    2003
_chemical_formula_sum            'Ga0.5 La Ni0.5 O3'
_chemical_name_systematic        'La (Ga0.5 Ni0.5) O3'
_space_group_IT_number           167
_symmetry_space_group_name_Hall  '-R 3 2"c'
_symmetry_space_group_name_H-M   'R -3 c :H'
_cell_angle_alpha                90
_cell_angle_beta                 90
_cell_angle_gamma                120
_cell_formula_units_Z            6
_cell_length_a                   5.492
_cell_length_b                   5.492
_cell_length_c                   13.224
_cell_volume                     345.426
_citation_journal_id_ASTM        MRBUAC
_cod_data_source_file            Vyshatko_MRBUAC_2003_534.cif
_cod_data_source_block           Ga0.5La1Ni0.5O3
_cod_original_cell_volume        345.4256
_cod_original_formula_sum        'Ga0.5 La1 Ni0.5 O3'
_cod_database_code               1532648
loop_
_symmetry_equiv_pos_as_xyz
x,y,z
-y,x-y,z
-x+y,-x,z
y,x,-z+1/2
-x,-x+y,-z+1/2
x-y,-y,-z+1/2
-x,-y,-z
y,-x+y,-z
x-y,x,-z
-y,-x,z-1/2
x,x-y,z-1/2
-x+y,y,z-1/2
x+2/3,y+1/3,z+1/3
-y+2/3,x-y+1/3,z+1/3
-x+y+2/3,-x+1/3,z+1/3
y+2/3,x+1/3,-z+5/6
-x+2/3,-x+y+1/3,-z+5/6
x-y+2/3,-y+1/3,-z+5/6
-x+2/3,-y+1/3,-z+1/3
y+2/3,-x+y+1/3,-z+1/3
x-y+2/3,x+1/3,-z+1/3
-y+2/3,-x+1/3,z-1/6
x+2/3,x-y+1/3,z-1/6
-x+y+2/3,y+1/3,z-1/6
x+1/3,y+2/3,z+2/3
-y+1/3,x-y+2/3,z+2/3
-x+y+1/3,-x+2/3,z+2/3
y+1/3,x+2/3,-z+7/6
-x+1/3,-x+y+2/3,-z+7/6
x-y+1/3,-y+2/3,-z+7/6
-x+1/3,-y+2/3,-z+2/3
y+1/3,-x+y+2/3,-z+2/3
x-y+1/3,x+2/3,-z+2/3
-y+1/3,-x+2/3,z+1/6
x+1/3,x-y+2/3,z+1/6
-x+y+1/3,y+2/3,z+1/6
loop_
_atom_site_label
_atom_site_type_symbol
_atom_site_fract_x
_atom_site_fract_y
_atom_site_fract_z
_atom_site_occupancy
_atom_site_U_iso_or_equiv
La1 La+3 0 0 0.25 1 0.0
Ni1 Ni+3 0 0 0 0.5 0.0
O1 O-2 0.5587 0 0.25 1 0.0
Ga1 Ga+3 0 0 0 0.5 0.0
