#------------------------------------------------------------------------------
#$Date: 2015-09-28 12:43:47 +0300 (Mon, 28 Sep 2015) $
#$Revision: 158472 $
#$URL: svn://www.crystallography.net/cod/cif/1/53/25/1532543.cif $
#------------------------------------------------------------------------------
#
# This file is available in the Crystallography Open Database (COD),
# http://www.crystallography.net/
#
# All data on this site have been placed in the public domain by the
# contributors.
#
data_1532543
loop_
_publ_author_name
'Kuz'micheva, G.M.'
'Afanas'eva, I.N.'
'Esaulova, Yu.V.'
'Khlybov, E.P.'
'Kostyleva, I.E.'
'Andreenko, A.S.'
_publ_section_title
;
 Dependence of the structure and properties of (M, Cu) Sr2 (Ln, Ca) Cu2
 O8-d (1212) and (M, Cu) Sr2 (Ln, Ce(4+))2 Cu2 O10-d (1222) phases on the
 cation M
;
_journal_name_full
'Zhurnal Strukturnoi Khimii (Issue-No. from 1981)'
_journal_page_first              871
_journal_page_last               890
_journal_volume                  43
_journal_year                    2002
_chemical_formula_sum            'Cr0.53 Cu2.47 La1.31 O7 Sr1.69'
_chemical_name_systematic
;
(Cr0.53 Cu0.47) (Sr1.39 La0.61) (La0.7 Sr0.3) Cu2 O7
;
_space_group_IT_number           123
_symmetry_space_group_name_Hall  '-P 4 2'
_symmetry_space_group_name_H-M   'P 4/m m m'
_cell_angle_alpha                90
_cell_angle_beta                 90
_cell_angle_gamma                90
_cell_formula_units_Z            1
_cell_length_a                   3.8223
_cell_length_b                   3.8223
_cell_length_c                   11.601
_cell_volume                     169.490
_citation_journal_id_ASTM        ZSTKAI
_cod_data_source_file            Kuzmicheva_ZSTKAI_2002_1176.cif
_cod_data_source_block           Cr0.53Cu2.47La1.31O7Sr1.69
_cod_original_cell_volume        169.4903
_cod_database_code               1532543
loop_
_symmetry_equiv_pos_as_xyz
x,y,z
-y,x,z
-x,-y,z
y,-x,z
x,-y,-z
y,x,-z
-x,y,-z
-y,-x,-z
-x,-y,-z
y,-x,-z
x,y,-z
-y,x,-z
-x,y,z
-y,-x,z
x,-y,z
y,x,z
loop_
_atom_site_label
_atom_site_type_symbol
_atom_site_fract_x
_atom_site_fract_y
_atom_site_fract_z
_atom_site_occupancy
_atom_site_U_iso_or_equiv
Cr1 Cr+3 0.095 0 0 0.132 0.0
Sr1 Sr+2 0.5 0.5 0.1909 0.7 0.0
La2 La+3 0.5 0.5 0.5 0.7 0.0
O3 O-2 0.5 0 0.3738 1 0.0
Sr2 Sr+2 0.5 0.5 0.5 0.3 0.0
Cu2 Cu+2 0 0 0.3508 1 0.0
Cu1 Cu+2 0.095 0 0 0.117 0.0
O2 O-2 0 0 0.1556 1 0.0
O1 O-2 0.3 0.5 0 0.25 0.0
La1 La+3 0.5 0.5 0.1909 0.3 0.0
