#------------------------------------------------------------------------------
#$Date: 2018-09-27 07:13:35 +0300 (Thu, 27 Sep 2018) $
#$Revision: 211196 $
#$URL: file:///home/coder/svn-repositories/cod/cif/1/53/23/1532333.cif $
#------------------------------------------------------------------------------
#
# This file is available in the Crystallography Open Database (COD),
# http://www.crystallography.net/
#
# All data on this site have been placed in the public domain by the
# contributors.
#
data_1532333
loop_
_publ_author_name
'Speakman, S.A.'
'Richardson, J.W.jr.'
'Mitchell, B.J.'
'Misture, S.T.'
_publ_section_title
;
 In-situ diffraction study of Ba2 In2 O5
;
_journal_name_full               'Solid State Ionics'
_journal_page_first              247
_journal_page_last               259
_journal_volume                  149
_journal_year                    2002
_chemical_formula_sum            'Ba0.99 In1.12 O2.44'
_space_group_IT_number           221
_symmetry_space_group_name_Hall  '-P 4 2 3'
_symmetry_space_group_name_H-M   'P m -3 m'
_cell_angle_alpha                90
_cell_angle_beta                 90
_cell_angle_gamma                90
_cell_formula_units_Z            1
_cell_length_a                   4.2743
_cell_length_b                   4.2743
_cell_length_c                   4.2743
_cell_volume                     78.090
_citation_journal_id_ASTM        SSIOD3
_cod_data_source_file            Speakman_SSIOD3_2002_851.cif
_cod_data_source_block           Ba0.99In1.12O2.44
_cod_original_cell_volume        78.08993
_cod_database_code               1532333
loop_
_symmetry_equiv_pos_as_xyz
x,y,z
-y,x,z
-x,-y,z
y,-x,z
x,-y,-z
y,x,-z
-x,y,-z
-y,-x,-z
z,x,y
-x,z,y
-z,-x,y
x,-z,y
z,-x,-y
x,z,-y
-z,x,-y
-x,-z,-y
y,z,x
y,-z,-x
z,y,-x
-y,z,-x
-z,-y,-x
-y,-z,x
z,-y,x
-z,y,x
-x,-y,-z
y,-x,-z
x,y,-z
-y,x,-z
-x,y,z
-y,-x,z
x,-y,z
y,x,z
-z,-x,-y
x,-z,-y
z,x,-y
-x,z,-y
-z,x,y
-x,-z,y
z,-x,y
x,z,y
-y,-z,-x
-y,z,x
-z,-y,x
y,-z,x
z,y,x
y,z,-x
-z,y,-x
z,-y,-x
loop_
_atom_site_label
_atom_site_type_symbol
_atom_site_fract_x
_atom_site_fract_y
_atom_site_fract_z
_atom_site_occupancy
_atom_site_U_iso_or_equiv
O1 O-2 0 0 0.5 0.812 0.0
In1 In+2 0 0 0 1.12 0.0
Ba1 Ba+2 0.5 0.5 0.5 0.986 0.0
