#------------------------------------------------------------------------------
#$Date: 2015-09-29 09:01:18 +0300 (Tue, 29 Sep 2015) $
#$Revision: 158999 $
#$URL: svn://www.crystallography.net/cod/cif/1/53/29/1532976.cif $
#------------------------------------------------------------------------------
#
# This file is available in the Crystallography Open Database (COD),
# http://www.crystallography.net/
#
# All data on this site have been placed in the public domain by the
# contributors.
#
data_1532976
loop_
_publ_author_name
'Kallel, N.'
'Vincent, H.'
'Dezanneau, G.'
'Dhahri, J.'
'Oumezzine, M.'
_publ_section_title
;
 Structure, magnetic and electrical behaviour of La0.7 Sr0.3 Mn1-x Tix O3
 with 0 <= x <= 0.3
;
_journal_name_full               'Journal of Magnetism and Magnetic Materials'
_journal_page_first              56
_journal_page_last               65
_journal_volume                  261
_journal_year                    2003
_chemical_formula_sum            'La0.7 Mn0.8 O3 Sr0.3 Ti0.2'
_chemical_name_systematic        '(La0.7 Sr0.3) (Mn0.8 Ti0.2) O3'
_space_group_IT_number           167
_symmetry_space_group_name_Hall  '-R 3 2"c'
_symmetry_space_group_name_H-M   'R -3 c :H'
_cell_angle_alpha                90
_cell_angle_beta                 90
_cell_angle_gamma                120
_cell_formula_units_Z            6
_cell_length_a                   5.5374
_cell_length_b                   5.5374
_cell_length_c                   13.42
_cell_volume                     356.365
_citation_journal_id_ASTM        JMMMDC
_cod_data_source_file            Kallel_JMMMDC_2003_416.cif
_cod_data_source_block           La0.7Mn0.8O3Sr0.3Ti0.2
_cod_original_cell_volume        356.3649
_cod_database_code               1532976
loop_
_symmetry_equiv_pos_as_xyz
x,y,z
-y,x-y,z
-x+y,-x,z
y,x,-z+1/2
-x,-x+y,-z+1/2
x-y,-y,-z+1/2
-x,-y,-z
y,-x+y,-z
x-y,x,-z
-y,-x,z-1/2
x,x-y,z-1/2
-x+y,y,z-1/2
x+2/3,y+1/3,z+1/3
-y+2/3,x-y+1/3,z+1/3
-x+y+2/3,-x+1/3,z+1/3
y+2/3,x+1/3,-z+5/6
-x+2/3,-x+y+1/3,-z+5/6
x-y+2/3,-y+1/3,-z+5/6
-x+2/3,-y+1/3,-z+1/3
y+2/3,-x+y+1/3,-z+1/3
x-y+2/3,x+1/3,-z+1/3
-y+2/3,-x+1/3,z-1/6
x+2/3,x-y+1/3,z-1/6
-x+y+2/3,y+1/3,z-1/6
x+1/3,y+2/3,z+2/3
-y+1/3,x-y+2/3,z+2/3
-x+y+1/3,-x+2/3,z+2/3
y+1/3,x+2/3,-z+7/6
-x+1/3,-x+y+2/3,-z+7/6
x-y+1/3,-y+2/3,-z+7/6
-x+1/3,-y+2/3,-z+2/3
y+1/3,-x+y+2/3,-z+2/3
x-y+1/3,x+2/3,-z+2/3
-y+1/3,-x+2/3,z+1/6
x+1/3,x-y+2/3,z+1/6
-x+y+1/3,y+2/3,z+1/6
loop_
_atom_site_label
_atom_site_type_symbol
_atom_site_fract_x
_atom_site_fract_y
_atom_site_fract_z
_atom_site_occupancy
_atom_site_U_iso_or_equiv
La1 La+3 0 0 0.25 0.7 0.0
Mn1 Mn+3 0 0 0 0.8 0.0
Ti1 Ti+4 0 0 0 0.2 0.0
Sr1 Sr+2 0 0 0.25 0.3 0.0
O1 O-2 0.4552 0 0.25 1 0.0
