#------------------------------------------------------------------------------
#$Date: 2015-09-19 00:30:19 +0300 (Sat, 19 Sep 2015) $
#$Revision: 158027 $
#$URL: svn://www.crystallography.net/cod/cif/1/53/23/1532329.cif $
#------------------------------------------------------------------------------
#
# This file is available in the Crystallography Open Database (COD),
# http://www.crystallography.net/
#
# All data on this site have been placed in the public domain by the
# contributors.
#
data_1532329
loop_
_publ_author_name
'Wolcyrz, M.'
'Bukovska, E.'
'Bouree, F.'
'Horyn, R.'
_publ_section_title
;
 Structural defects in La Mn O3 phase studied by neutron diffraction
;
_journal_name_full               'Journal of Alloys Compd.'
_journal_page_first              170
_journal_page_last               174
_journal_volume                  353
_journal_year                    2003
_chemical_formula_sum            'La0.922 Mn1.013 O3'
_chemical_name_systematic        '(La0.922 Mn0.013) (Mn O3)'
_space_group_IT_number           167
_symmetry_space_group_name_Hall  '-R 3 2"c'
_symmetry_space_group_name_H-M   'R -3 c :H'
_cell_angle_alpha                90
_cell_angle_beta                 90
_cell_angle_gamma                120
_cell_formula_units_Z            6
_cell_length_a                   5.5401
_cell_length_b                   5.5401
_cell_length_c                   13.3677
_cell_volume                     355.322
_citation_journal_id_ASTM        JALCEU
_cod_data_source_file            Wolcyrz_JALCEU_2003_1368.cif
_cod_data_source_block           La0.922Mn1.013O3
_cod_original_cell_volume        355.3224
_cod_database_code               1532329
loop_
_symmetry_equiv_pos_as_xyz
x,y,z
-y,x-y,z
-x+y,-x,z
y,x,-z+1/2
-x,-x+y,-z+1/2
x-y,-y,-z+1/2
-x,-y,-z
y,-x+y,-z
x-y,x,-z
-y,-x,z-1/2
x,x-y,z-1/2
-x+y,y,z-1/2
x+2/3,y+1/3,z+1/3
-y+2/3,x-y+1/3,z+1/3
-x+y+2/3,-x+1/3,z+1/3
y+2/3,x+1/3,-z+5/6
-x+2/3,-x+y+1/3,-z+5/6
x-y+2/3,-y+1/3,-z+5/6
-x+2/3,-y+1/3,-z+1/3
y+2/3,-x+y+1/3,-z+1/3
x-y+2/3,x+1/3,-z+1/3
-y+2/3,-x+1/3,z-1/6
x+2/3,x-y+1/3,z-1/6
-x+y+2/3,y+1/3,z-1/6
x+1/3,y+2/3,z+2/3
-y+1/3,x-y+2/3,z+2/3
-x+y+1/3,-x+2/3,z+2/3
y+1/3,x+2/3,-z+7/6
-x+1/3,-x+y+2/3,-z+7/6
x-y+1/3,-y+2/3,-z+7/6
-x+1/3,-y+2/3,-z+2/3
y+1/3,-x+y+2/3,-z+2/3
x-y+1/3,x+2/3,-z+2/3
-y+1/3,-x+2/3,z+1/6
x+1/3,x-y+2/3,z+1/6
-x+y+1/3,y+2/3,z+1/6
loop_
_atom_site_label
_atom_site_type_symbol
_atom_site_fract_x
_atom_site_fract_y
_atom_site_fract_z
_atom_site_occupancy
_atom_site_U_iso_or_equiv
Mn2 Mn+3 0 0 0 1 0.0
La1 La+3 0 0 0.25 0.922 0.0
O1 O-2 0.4462 0 0.25 1 0.0
Mn1 Mn+3 0 0 0.25 0.013 0.0
