#------------------------------------------------------------------------------
#$Date: 2015-09-29 08:56:52 +0300 (Tue, 29 Sep 2015) $
#$Revision: 158977 $
#$URL: svn://www.crystallography.net/cod/cif/1/53/29/1532959.cif $
#------------------------------------------------------------------------------
#
# This file is available in the Crystallography Open Database (COD),
# http://www.crystallography.net/
#
# All data on this site have been placed in the public domain by the
# contributors.
#
data_1532959
loop_
_publ_author_name
'Jovic, N.'
'Antic, B.'
'Kremenovic, A.'
'Spasojevic-de Bire, A.'
'Spasojevic, V.'
_publ_section_title
;
 Cation ordering and order-disorder phase transition in Co-substituted Li4
 Ti5 O12 spinels
;
_journal_name_full
'Physica Status Solidi, Sectio A: Applied Research'
_journal_page_first              18
_journal_page_last               28
_journal_volume                  198
_journal_year                    2003
_chemical_formula_sum            'Co1.041 Li1.959 O8 Ti3.001'
_chemical_name_systematic
;
(Li0.945 Ti0.056) (Co0.986 Li1.014) (Ti2.945 Co0.055 O8)
;
_space_group_IT_number           212
_symmetry_space_group_name_Hall  'P 4acd 2ab 3'
_symmetry_space_group_name_H-M   'P 43 3 2'
_cell_angle_alpha                90
_cell_angle_beta                 90
_cell_angle_gamma                90
_cell_formula_units_Z            4
_cell_length_a                   8.3747
_cell_length_b                   8.3747
_cell_length_c                   8.3747
_cell_volume                     587.365
_citation_journal_id_ASTM        PSSABA
_cod_data_source_file            Jovic_PSSABA_2003_642.cif
_cod_data_source_block           Co1.041Li1.959O8Ti3.001
_cod_original_cell_volume        587.3645
_cod_database_code               1532959
loop_
_symmetry_equiv_pos_as_xyz
x,y,z
-y+3/4,x+1/4,z+3/4
-x+1/2,-y,z+1/2
y+3/4,-x+3/4,z+1/4
x+1/2,-y+1/2,-z
y+1/4,x+3/4,-z+3/4
-x,y+1/2,-z+1/2
-y+1/4,-x+1/4,-z+1/4
z,x,y
-x+3/4,z+1/4,y+3/4
-z+1/2,-x,y+1/2
x+3/4,-z+3/4,y+1/4
z+1/2,-x+1/2,-y
x+1/4,z+3/4,-y+3/4
-z,x+1/2,-y+1/2
-x+1/4,-z+1/4,-y+1/4
y,z,x
y+1/2,-z+1/2,-x
z+1/4,y+3/4,-x+3/4
-y,z+1/2,-x+1/2
-z+1/4,-y+1/4,-x+1/4
-y+1/2,-z,x+1/2
z+3/4,-y+3/4,x+1/4
-z+3/4,y+1/4,x+3/4
loop_
_atom_site_label
_atom_site_type_symbol
_atom_site_fract_x
_atom_site_fract_y
_atom_site_fract_z
_atom_site_occupancy
_atom_site_U_iso_or_equiv
Ti1 Ti+4 0.625 0.625 0.625 0.055 0.0
Ti2 Ti+4 0.125 0.3677 0.8823 0.9817 0.0
O2 O-2 0.1084 0.1266 0.3884 1 0.0
O1 O-2 0.3889 0.3889 0.3889 1 0.0
Co1 Co+2 0.999 0.999 0.999 0.493 0.0
Co2 Co+2 0.125 0.3677 0.8823 0.0183 0.0
Li1 Li+1 0.625 0.625 0.625 0.945 0.0
Li2 Li+1 0.999 0.999 0.999 0.507 0.0
