#------------------------------------------------------------------------------
#$Date: 2016-02-13 21:28:24 +0200 (Sat, 13 Feb 2016) $
#$Revision: 176429 $
#$URL: svn://www.crystallography.net/cod/cif/1/53/23/1532337.cif $
#------------------------------------------------------------------------------
#
# This file is available in the Crystallography Open Database (COD),
# http://www.crystallography.net/
#
# All data on this site have been placed in the public domain by the
# contributors.
#
data_1532337
loop_
_publ_author_name
'Wong-Ng, W.'
'Kaduk, J.A.'
'Dillingham, J.'
_publ_section_title
;
 Crystal structures and reference diffraction patterns of Ba Sr R4 O9
;
_journal_name_full               'Powder Diffraction'
_journal_page_first              202
_journal_page_last               209
_journal_volume                  17
_journal_year                    2002
_chemical_formula_sum            'Ba Nd4 O8 Sr'
_chemical_name_systematic        'Ba Sr Nd4 O8'
_space_group_IT_number           62
_symmetry_space_group_name_Hall  '-P 2ac 2n'
_symmetry_space_group_name_H-M   'P n m a'
_cell_angle_alpha                90
_cell_angle_beta                 90
_cell_angle_gamma                90
_cell_formula_units_Z            2
_cell_length_a                   10.4012
_cell_length_b                   3.58727
_cell_length_c                   12.3393
_cell_volume                     460.403
_citation_journal_id_ASTM        PODIE2
_cod_data_source_file            Wong-Ng_PODIE2_2002_1994.cif
_cod_data_source_block           Ba1Nd4O8Sr1
_cod_original_cell_volume        460.4029
_cod_original_formula_sum        'Ba1 Nd4 O8 Sr1'
_cod_database_code               1532337
loop_
_symmetry_equiv_pos_as_xyz
x,y,z
-x+1/2,-y,z+1/2
x+1/2,-y+1/2,-z+1/2
-x,y+1/2,-z
-x,-y,-z
x-1/2,y,-z-1/2
-x-1/2,y-1/2,z-1/2
x,-y-1/2,z
loop_
_atom_site_label
_atom_site_type_symbol
_atom_site_fract_x
_atom_site_fract_y
_atom_site_fract_z
_atom_site_occupancy
_atom_site_U_iso_or_equiv
O1 O-2 0.2136 0.25 0.177 1 0.0
Nd2 Nd+3 0.4274 0.25 0.1147 1 0.0
Nd1 Nd+3 0.4127 0.25 0.6111 1 0.0
Sr1 Sr+2 0.7481 0.25 0.6463 0.5 0.0
O3 O-2 0.5136 0.25 0.776 1 0.0
O4 O-2 0.4438 0.25 0.4207 1 0.0
Ba1 Ba+2 0.7481 0.25 0.6463 0.5 0.0
O2 O-2 0.1168 0.25 0.4919 1 0.0
