#------------------------------------------------------------------------------
#$Date: 2016-02-13 21:28:24 +0200 (Sat, 13 Feb 2016) $
#$Revision: 176429 $
#$URL: svn://www.crystallography.net/cod/cif/1/53/23/1532345.cif $
#------------------------------------------------------------------------------
#
# This file is available in the Crystallography Open Database (COD),
# http://www.crystallography.net/
#
# All data on this site have been placed in the public domain by the
# contributors.
#
data_1532345
loop_
_publ_author_name
'Wong-Ng, W.'
'Kaduk, J.A.'
'Dillingham, J.'
_publ_section_title
;
 Crystal structures and reference diffraction patterns of Ba Sr R4 O9
;
_journal_name_full               'Powder Diffraction'
_journal_page_first              202
_journal_page_last               209
_journal_volume                  17
_journal_year                    2002
_chemical_formula_sum            'Ba Gd4 O8 Sr'
_chemical_name_systematic        'Ba Sr Gd4 O8'
_space_group_IT_number           62
_symmetry_space_group_name_Hall  '-P 2ac 2n'
_symmetry_space_group_name_H-M   'P n m a'
_cell_angle_alpha                90
_cell_angle_beta                 90
_cell_angle_gamma                90
_cell_formula_units_Z            2
_cell_length_a                   10.32655
_cell_length_b                   3.49713
_cell_length_c                   12.1722
_cell_volume                     439.578
_citation_journal_id_ASTM        PODIE2
_cod_data_source_file            Wong-Ng_PODIE2_2002_1998.cif
_cod_data_source_block           Ba1Gd4O8Sr1
_cod_original_cell_volume        439.5781
_cod_original_formula_sum        'Ba1 Gd4 O8 Sr1'
_cod_database_code               1532345
loop_
_symmetry_equiv_pos_as_xyz
x,y,z
-x+1/2,-y,z+1/2
x+1/2,-y+1/2,-z+1/2
-x,y+1/2,-z
-x,-y,-z
x-1/2,y,-z-1/2
-x-1/2,y-1/2,z-1/2
x,-y-1/2,z
loop_
_atom_site_label
_atom_site_type_symbol
_atom_site_fract_x
_atom_site_fract_y
_atom_site_fract_z
_atom_site_occupancy
_atom_site_U_iso_or_equiv
Gd1 Gd+3 0.4209 0.25 0.612 1 0.0
Ba1 Ba+2 0.7514 0.25 0.6488 0.5 0.0
O2 O-2 0.1215 0.25 0.483 1 0.0
Sr1 Sr+2 0.7514 0.25 0.6488 0.5 0.0
O3 O-2 0.505 0.25 0.786 1 0.0
Gd2 Gd+3 0.4236 0.25 0.1117 1 0.0
O1 O-2 0.214 0.25 0.1707 1 0.0
O4 O-2 0.43 0.25 0.4152 1 0.0
