#------------------------------------------------------------------------------
#$Date: 2016-02-13 21:28:24 +0200 (Sat, 13 Feb 2016) $
#$Revision: 176429 $
#$URL: svn://www.crystallography.net/cod/cif/1/53/27/1532763.cif $
#------------------------------------------------------------------------------
#
# This file is available in the Crystallography Open Database (COD),
# http://www.crystallography.net/
#
# All data on this site have been placed in the public domain by the
# contributors.
#
data_1532763
loop_
_publ_author_name
'Levin, I.'
'Roth, R.S.'
'Amos, T.G.'
'Farber, L.'
'Bell, S.M.'
'Toby, B.H.'
'Vanderah, T.A.'
_publ_section_title
;
 Phase equilibria, crystal structures and dielectric anomaly in the (Ba Zr
 O3) - (Ca Zr O3) system
;
_journal_name_full               'Journal of Solid State Chemistry'
_journal_page_first              170
_journal_page_last               181
_journal_volume                  175
_journal_year                    2003
_chemical_formula_sum            'Ba0.8 Ca0.2 O3 Zr'
_chemical_name_systematic        '(Ba0.8 Ca0.2) (Zr O3)'
_space_group_IT_number           221
_symmetry_space_group_name_Hall  '-P 4 2 3'
_symmetry_space_group_name_H-M   'P m -3 m'
_cell_angle_alpha                90
_cell_angle_beta                 90
_cell_angle_gamma                90
_cell_formula_units_Z            1
_cell_length_a                   4.177
_cell_length_b                   4.177
_cell_length_c                   4.177
_cell_volume                     72.877
_citation_journal_id_ASTM        JSSCBI
_cod_data_source_file            Levin_JSSCBI_2003_173.cif
_cod_data_source_block           Ba0.8Ca0.2O3Zr1
_cod_original_cell_volume        72.87749
_cod_original_formula_sum        'Ba0.8 Ca0.2 O3 Zr1'
_cod_database_code               1532763
loop_
_symmetry_equiv_pos_as_xyz
x,y,z
-y,x,z
-x,-y,z
y,-x,z
x,-y,-z
y,x,-z
-x,y,-z
-y,-x,-z
z,x,y
-x,z,y
-z,-x,y
x,-z,y
z,-x,-y
x,z,-y
-z,x,-y
-x,-z,-y
y,z,x
y,-z,-x
z,y,-x
-y,z,-x
-z,-y,-x
-y,-z,x
z,-y,x
-z,y,x
-x,-y,-z
y,-x,-z
x,y,-z
-y,x,-z
-x,y,z
-y,-x,z
x,-y,z
y,x,z
-z,-x,-y
x,-z,-y
z,x,-y
-x,z,-y
-z,x,y
-x,-z,y
z,-x,y
x,z,y
-y,-z,-x
-y,z,x
-z,-y,x
y,-z,x
z,y,x
y,z,-x
-z,y,-x
z,-y,-x
loop_
_atom_site_label
_atom_site_type_symbol
_atom_site_fract_x
_atom_site_fract_y
_atom_site_fract_z
_atom_site_occupancy
_atom_site_U_iso_or_equiv
O1 O-2 0 0.5 0.5 1 0.0
Ba1 Ba+2 0 0 0 0.8 0.0
Zr1 Zr+4 0.5 0.5 0.5 1 0.0
Ca1 Ca+2 0 0 0 0.2 0.0
