#------------------------------------------------------------------------------
#$Date: 2016-02-13 21:28:24 +0200 (Sat, 13 Feb 2016) $
#$Revision: 176429 $
#$URL: svn://www.crystallography.net/cod/cif/1/53/29/1532941.cif $
#------------------------------------------------------------------------------
#
# This file is available in the Crystallography Open Database (COD),
# http://www.crystallography.net/
#
# All data on this site have been placed in the public domain by the
# contributors.
#
data_1532941
loop_
_publ_author_name
'Jorgensen, J.D.'
'Avdeev, M.'
'Short, S.'
'Burley, J.C.'
'Hinks, D.G.'
_publ_section_title
;
 Crystal structure of the sodium cobaltate deuterate superconductor Nax Co
 O2 * 4x(D2 O)
;
_journal_name_full
'Physical Review, Serie 3. B - Condensed Matter (18,1978-)'
_journal_page_first              214517-1
_journal_page_last               214517-10
_journal_volume                  68
_journal_year                    2003
_chemical_formula_sum            'Co D2.5 Na0.31 O3.25'
_chemical_name_systematic        'Na0.31 (Co O2) (D2 O)1.25'
_space_group_IT_number           194
_symmetry_space_group_name_Hall  '-P 6c 2c'
_symmetry_space_group_name_H-M   'P 63/m m c'
_cell_angle_alpha                90
_cell_angle_beta                 90
_cell_angle_gamma                120
_cell_formula_units_Z            2
_cell_length_a                   2.81693
_cell_length_b                   2.81693
_cell_length_c                   19.6449
_cell_volume                     135.000
_citation_journal_id_ASTM        PRBMDO
_cod_data_source_file            Jorgensen_PRBMDO_2003_1980.cif
_cod_data_source_block           D2.5Co1Na0.31O3.25
_cod_original_cell_volume        134.9996
_cod_original_formula_sum        'D2.5 Co1 Na0.31 O3.25'
_cod_database_code               1532941
loop_
_symmetry_equiv_pos_as_xyz
x,y,z
x-y,x,z+1/2
-y,x-y,z
-x,-y,z+1/2
-x+y,-x,z
y,-x+y,z+1/2
-y,-x,-z+1/2
x-y,-y,-z
x,x-y,-z+1/2
y,x,-z
-x+y,y,-z+1/2
-x,-x+y,-z
-x,-y,-z
-x+y,-x,-z-1/2
y,-x+y,-z
x,y,-z-1/2
x-y,x,-z
-y,x-y,-z-1/2
y,x,z-1/2
-x+y,y,z
-x,-x+y,z-1/2
-y,-x,z
x-y,-y,z-1/2
x,x-y,z
loop_
_atom_site_label
_atom_site_type_symbol
_atom_site_fract_x
_atom_site_fract_y
_atom_site_fract_z
_atom_site_occupancy
_atom_site_U_iso_or_equiv
O2 O-2 0.74 -0.091 0.175 0.104 0.0
D2 D+1 -0.098 0.312 0.1819 0.104 0.0
Co1 Co+3 0 0 0 1 0.0
D1 D+1 0.521 0.796 0.1321 0.104 0.0
O1 O-2 0.3333 0.6667 0.0473 1 0.0
Na1 Na+1 0.52 0.26 0.25 0.103 0.0
