#------------------------------------------------------------------------------
#$Date: 2016-02-13 21:28:24 +0200 (Sat, 13 Feb 2016) $
#$Revision: 176429 $
#$URL: svn://www.crystallography.net/cod/cif/1/53/23/1532357.cif $
#------------------------------------------------------------------------------
#
# This file is available in the Crystallography Open Database (COD),
# http://www.crystallography.net/
#
# All data on this site have been placed in the public domain by the
# contributors.
#
data_1532357
loop_
_publ_author_name
'Stange, M.'
'Linden, J.'
'Binsted, N.'
'Kjekshus, A.'
'Weller, M.T.'
'Hauback, B.C.'
'Fjellvag, H.'
_publ_section_title
;
 Structural aspects of Pr1-x Srx Fe O3-w
;
_journal_name_full               'Journal of Solid State Chemistry'
_journal_page_first              148
_journal_page_last               163
_journal_volume                  173
_journal_year                    2003
_chemical_formula_sum            'Fe O2.746 Pr0.2 Sr0.8'
_chemical_name_systematic        '(Pr0.2 Sr0.8) Fe O2.746'
_space_group_IT_number           221
_symmetry_space_group_name_Hall  '-P 4 2 3'
_symmetry_space_group_name_H-M   'P m -3 m'
_cell_angle_alpha                90
_cell_angle_beta                 90
_cell_angle_gamma                90
_cell_formula_units_Z            1
_cell_length_a                   3.8846
_cell_length_b                   3.8846
_cell_length_c                   3.8846
_cell_volume                     58.619
_citation_journal_id_ASTM        JSSCBI
_cod_data_source_file            Stange_JSSCBI_2003_1584.cif
_cod_data_source_block           Fe1O2.746Pr0.2Sr0.8
_cod_original_cell_volume        58.61906
_cod_original_formula_sum        'Fe1 O2.746 Pr0.2 Sr0.8'
_cod_database_code               1532357
loop_
_symmetry_equiv_pos_as_xyz
x,y,z
-y,x,z
-x,-y,z
y,-x,z
x,-y,-z
y,x,-z
-x,y,-z
-y,-x,-z
z,x,y
-x,z,y
-z,-x,y
x,-z,y
z,-x,-y
x,z,-y
-z,x,-y
-x,-z,-y
y,z,x
y,-z,-x
z,y,-x
-y,z,-x
-z,-y,-x
-y,-z,x
z,-y,x
-z,y,x
-x,-y,-z
y,-x,-z
x,y,-z
-y,x,-z
-x,y,z
-y,-x,z
x,-y,z
y,x,z
-z,-x,-y
x,-z,-y
z,x,-y
-x,z,-y
-z,x,y
-x,-z,y
z,-x,y
x,z,y
-y,-z,-x
-y,z,x
-z,-y,x
y,-z,x
z,y,x
y,z,-x
-z,y,-x
z,-y,-x
loop_
_atom_site_label
_atom_site_type_symbol
_atom_site_fract_x
_atom_site_fract_y
_atom_site_fract_z
_atom_site_occupancy
_atom_site_U_iso_or_equiv
Sr1 Sr+2 0 0 0 0.8 0.0
Fe1 Fe+3 0.5 0.5 0.5 1 0.0
Pr1 Pr+3 0 0 0 0.2 0.0
O1 O-2 0.5 0.5 0 0.915 0.0
