#------------------------------------------------------------------------------
#$Date: 2016-02-13 21:28:24 +0200 (Sat, 13 Feb 2016) $
#$Revision: 176429 $
#$URL: svn://www.crystallography.net/cod/cif/1/53/32/1533228.cif $
#------------------------------------------------------------------------------
#
# This file is available in the Crystallography Open Database (COD),
# http://www.crystallography.net/
#
# All data on this site have been placed in the public domain by the
# contributors.
#
data_1533228
loop_
_publ_author_name
'Xu Sheng'
'Moritomo, Y.'
'Ohoyama, K.'
'Nakamura, A.'
_publ_section_title
;
 Neutron structural analysis of La1-x Srx Mn O3 - variation of
 one-electron bandwidth W with hole doping
;
_journal_name_full               'Journal of the Physical Society of Japan'
_journal_page_first              709
_journal_page_last               712
_journal_volume                  72
_journal_year                    2003
_chemical_formula_sum            'La0.84 Mn O3.12 Sr0.16'
_chemical_name_systematic        '(La0.84 Sr0.16) Mn O3.12'
_space_group_IT_number           62
_symmetry_space_group_name_Hall  '-P 2c 2ab'
_symmetry_space_group_name_H-M   'P b n m'
_cell_angle_alpha                90
_cell_angle_beta                 90
_cell_angle_gamma                90
_cell_formula_units_Z            4
_cell_length_a                   5.5374
_cell_length_b                   5.4959
_cell_length_c                   7.778
_cell_volume                     236.708
_citation_journal_id_ASTM        JUPSAU
_cod_data_source_file            XuSheng_JUPSAU_2003_458.cif
_cod_data_source_block           La0.84Mn1O3.12Sr0.16
_cod_original_cell_volume        236.7078
_cod_original_sg_symbol_Hall     '-P 2ac 2n (z,x,y)'
_cod_original_formula_sum        'La0.84 Mn1 O3.12 Sr0.16'
_cod_database_code               1533228
loop_
_symmetry_equiv_pos_as_xyz
x,y,z
x+1/2,-y+1/2,-z
-x+1/2,y+1/2,-z+1/2
-x,-y,z+1/2
-x,-y,-z
-x-1/2,y-1/2,z
x-1/2,-y-1/2,z-1/2
x,y,-z-1/2
loop_
_atom_site_label
_atom_site_type_symbol
_atom_site_fract_x
_atom_site_fract_y
_atom_site_fract_z
_atom_site_occupancy
_atom_site_U_iso_or_equiv
La1 La+3 0.0035 -0.0154 0.25 0.84 0.0
O2 O-2 0.268 0.7323 0.0336 1.04 0.0
Mn1 Mn+3 0.5 0 0 1 0.0
Sr1 Sr+2 0.0035 -0.0154 0.25 0.16 0.0
O1 O-2 0.937 0.5056 0.25 1.04 0.0
