#------------------------------------------------------------------------------
#$Date: 2016-02-13 21:28:24 +0200 (Sat, 13 Feb 2016) $
#$Revision: 176429 $
#$URL: svn://www.crystallography.net/cod/cif/1/53/32/1533285.cif $
#------------------------------------------------------------------------------
#
# This file is available in the Crystallography Open Database (COD),
# http://www.crystallography.net/
#
# All data on this site have been placed in the public domain by the
# contributors.
#
data_1533285
loop_
_publ_author_name
'Zavaliy, I.Yu.'
'Cerny, R.'
'Koval'chuk, I.V.'
'Saldan, I.V.'
_publ_section_title
;
 Hydrogenation of oxygen-stabilized Zr3 Ni Ox compounds
;
_journal_name_full               'Journal of Alloys Compd.'
_journal_page_first              173
_journal_page_last               182
_journal_volume                  360
_journal_year                    2003
_chemical_formula_sum            'D6.031 Ni O0.627 Zr3'
_chemical_name_systematic        'Zr3 Ni O0.627 D6.031'
_space_group_IT_number           63
_symmetry_space_group_name_Hall  '-C 2c 2'
_symmetry_space_group_name_H-M   'C m c m'
_cell_angle_alpha                90
_cell_angle_beta                 90
_cell_angle_gamma                90
_cell_formula_units_Z            4
_cell_length_a                   3.56646
_cell_length_b                   11.13389
_cell_length_c                   9.61969
_cell_volume                     381.984
_citation_journal_id_ASTM        JALCEU
_cod_data_source_file            Zavaliy_JALCEU_2003_81.cif
_cod_data_source_block           D6.031Ni1O0.627Zr3
_cod_original_cell_volume        381.9842
_cod_original_formula_sum        'D6.031 Ni1 O0.627 Zr3'
_cod_database_code               1533285
loop_
_symmetry_equiv_pos_as_xyz
x,y,z
-x,-y,z+1/2
x,-y,-z
-x,y,-z+1/2
-x,-y,-z
x,y,-z-1/2
-x,y,z
x,-y,z-1/2
x+1/2,y+1/2,z
-x+1/2,-y+1/2,z+1/2
x+1/2,-y+1/2,-z
-x+1/2,y+1/2,-z+1/2
-x+1/2,-y+1/2,-z
x+1/2,y+1/2,-z-1/2
-x+1/2,y+1/2,z
x+1/2,-y+1/2,z-1/2
loop_
_atom_site_label
_atom_site_type_symbol
_atom_site_fract_x
_atom_site_fract_y
_atom_site_fract_z
_atom_site_occupancy
_atom_site_U_iso_or_equiv
D1 D 0 0.7265 0.25 0.845 0.0
O3 O 0 0.4626 0.3736 0.233 0.0
D3 D 0 0.1722 0.9461 0.997 0.0
Zr2 Zr 0 0.3594 0.5538 1 0.0
O2 O 0 0.1722 0.9461 0.003 0.0
O1 O 0 0.7265 0.25 0.155 0.0
Ni1 Ni 0 0.2273 0.25 1 0.0
D2 D 0 0.9 0.6535 0.5 0.0
D5 D 0 0.927 0.634 0.335 0.0
Zr1 Zr 0 0.9252 0.25 1 0.0
D4 D 0 0.4626 0.3736 0.761 0.0
