#------------------------------------------------------------------------------
#$Date: 2016-02-13 21:28:24 +0200 (Sat, 13 Feb 2016) $
#$Revision: 176429 $
#$URL: svn://www.crystallography.net/cod/cif/1/53/37/1533796.cif $
#------------------------------------------------------------------------------
#
# This file is available in the Crystallography Open Database (COD),
# http://www.crystallography.net/
#
# All data on this site have been placed in the public domain by the
# contributors.
#
data_1533796
loop_
_publ_author_name
'Van den Berghe, S.'
'Leenaers, A.'
'Ritter, C.'
_publ_section_title
;
 Antiferromagnetism in M U O3 (M= Na, K, Rb) studied by neutron
 diffraction
;
_journal_name_full               'Journal of Solid State Chemistry'
_journal_page_first              2231
_journal_page_last               2236
_journal_volume                  177
_journal_year                    2004
_chemical_formula_sum            'O3 Rb U'
_chemical_name_systematic        'Rb (U O3)'
_space_group_IT_number           221
_symmetry_space_group_name_Hall  '-P 4 2 3'
_symmetry_space_group_name_H-M   'P m -3 m'
_cell_angle_alpha                90
_cell_angle_beta                 90
_cell_angle_gamma                90
_cell_formula_units_Z            1
_cell_length_a                   4.3222
_cell_length_b                   4.3222
_cell_length_c                   4.3222
_cell_volume                     80.745
_citation_journal_id_ASTM        JSSCBI
_cod_data_source_file            VandenBerghe_JSSCBI_2004_1755.cif
_cod_data_source_block           O3Rb1U1
_cod_original_cell_volume        80.74479
_cod_original_formula_sum        'O3 Rb1 U1'
_cod_database_code               1533796
loop_
_symmetry_equiv_pos_as_xyz
x,y,z
-y,x,z
-x,-y,z
y,-x,z
x,-y,-z
y,x,-z
-x,y,-z
-y,-x,-z
z,x,y
-x,z,y
-z,-x,y
x,-z,y
z,-x,-y
x,z,-y
-z,x,-y
-x,-z,-y
y,z,x
y,-z,-x
z,y,-x
-y,z,-x
-z,-y,-x
-y,-z,x
z,-y,x
-z,y,x
-x,-y,-z
y,-x,-z
x,y,-z
-y,x,-z
-x,y,z
-y,-x,z
x,-y,z
y,x,z
-z,-x,-y
x,-z,-y
z,x,-y
-x,z,-y
-z,x,y
-x,-z,y
z,-x,y
x,z,y
-y,-z,-x
-y,z,x
-z,-y,x
y,-z,x
z,y,x
y,z,-x
-z,y,-x
z,-y,-x
loop_
_atom_site_label
_atom_site_type_symbol
_atom_site_fract_x
_atom_site_fract_y
_atom_site_fract_z
_atom_site_occupancy
_atom_site_U_iso_or_equiv
Rb1 Rb+1 0.5 0.5 0.5 1 0.0
O1 O-2 0.5 0 0 1 0.0
U1 U+5 0 0 0 1 0.0
