#------------------------------------------------------------------------------
#$Date: 2015-10-01 14:12:44 +0300 (Thu, 01 Oct 2015) $
#$Revision: 159123 $
#$URL: svn://www.crystallography.net/cod/cif/1/53/30/1533040.cif $
#------------------------------------------------------------------------------
#
# This file is available in the Crystallography Open Database (COD),
# http://www.crystallography.net/
#
# All data on this site have been placed in the public domain by the
# contributors.
#
data_1533040
loop_
_publ_author_name
'Rayaprol, S.'
'Mavani, K.R.'
'Dixit, M.'
'Rana, D.S.'
'Thaker, C.M.'
'Bhattacharya, S.'
'Kuberkar, D.G.'
_publ_section_title
;
 Studies on La2-x Prx Cay Ba2 Cu4+y Oz (x=0.1-0.5, y=2x) type mixed oxide
 superconductors
;
_journal_name_full               'Solid State Communications'
_journal_page_first              97
_journal_page_last               100
_journal_volume                  128
_journal_year                    2003
_chemical_formula_sum            'Ba1.33 Ca0.18 Cu3 La1.14 O7.32 Pr0.14'
_chemical_name_systematic        'La1.14 Pr0.14 Ca0.18 Ba1.33 Cu3 O7.32'
_space_group_IT_number           123
_symmetry_space_group_name_Hall  '-P 4 2'
_symmetry_space_group_name_H-M   'P 4/m m m'
_cell_angle_alpha                90
_cell_angle_beta                 90
_cell_angle_gamma                90
_cell_formula_units_Z            1
_cell_length_a                   3.8824
_cell_length_b                   3.8824
_cell_length_c                   11.6698
_cell_volume                     175.899
_citation_journal_id_ASTM        SSCOA4
_cod_data_source_file            Rayaprol_SSCOA4_2003_1998.cif
_cod_data_source_block           Ba1.33Ca0.18Cu3La1.14O7.32Pr0.14
_cod_original_cell_volume        175.8992
_cod_database_code               1533040
loop_
_symmetry_equiv_pos_as_xyz
x,y,z
-y,x,z
-x,-y,z
y,-x,z
x,-y,-z
y,x,-z
-x,y,-z
-y,-x,-z
-x,-y,-z
y,-x,-z
x,y,-z
-y,x,-z
-x,y,z
-y,-x,z
x,-y,z
y,x,z
loop_
_atom_site_label
_atom_site_type_symbol
_atom_site_fract_x
_atom_site_fract_y
_atom_site_fract_z
_atom_site_occupancy
_atom_site_U_iso_or_equiv
O2 O-2 0 0 0.1687 1 0.0
Cu1 Cu+2 0 0 0 1 0.0
La2 La+3 0.5 0.5 0.183 0.254 0.0
O3 O-2 0 0.5 0.3799 1 0.0
Pr1 Pr+3 0.5 0.5 0.5 0.143 0.0
La1 La+3 0.5 0.5 0.5 0.63 0.0
Cu2 Cu+2 0 0 0.3521 1 0.0
Ca2 Ca+2 0.5 0.5 0.183 0.045 0.0
Ba1 Ba+2 0.5 0.5 0.183 0.664 0.0
O1 O-2 0 0.5 0 0.6596 0.0
Ca1 Ca+2 0.5 0.5 0.5 0.094 0.0
