#------------------------------------------------------------------------------
#$Date: 2018-09-27 07:13:35 +0300 (Thu, 27 Sep 2018) $
#$Revision: 211196 $
#$URL: file:///home/coder/svn-repositories/cod/cif/1/53/35/1533507.cif $
#------------------------------------------------------------------------------
#
# This file is available in the Crystallography Open Database (COD),
# http://www.crystallography.net/
#
# All data on this site have been placed in the public domain by the
# contributors.
#
data_1533507
loop_
_publ_author_name
'Takada, Y.'
'Tachibana, T.'
'Nakagawa, T.'
'Yamamoto, T.'
'Shimada, T.'
'Kawano, S.'
_publ_section_title
;
 Correlation between magnetic property and cation distribution in Z-type
 hexagonal barium-ferrite (Ba3 Co2-x Fe24+x O41) by neutron diffraction
;
_journal_name_full
'Materials Research Society Symposia Proceedings'
_journal_page_first              49
_journal_page_last               54
_journal_volume                  746
_journal_year                    2003
_chemical_formula_sum            'Ba3 Co1.4 Fe24.6 O41'
_space_group_IT_number           194
_symmetry_space_group_name_Hall  '-P 6c 2c'
_symmetry_space_group_name_H-M   'P 63/m m c'
_cell_angle_alpha                90
_cell_angle_beta                 90
_cell_angle_gamma                120
_cell_formula_units_Z            2
_cell_length_a                   5.8781
_cell_length_b                   5.8781
_cell_length_c                   52.236
_cell_volume                     1563.056
_citation_journal_id_ASTM        MRSPDH
_cod_data_source_file            Takada_MRSPDH_2003_554.cif
_cod_data_source_block           Ba3Co1.4Fe24.6O41
_cod_database_code               1533507
loop_
_symmetry_equiv_pos_as_xyz
x,y,z
x-y,x,z+1/2
-y,x-y,z
-x,-y,z+1/2
-x+y,-x,z
y,-x+y,z+1/2
-y,-x,-z+1/2
x-y,-y,-z
x,x-y,-z+1/2
y,x,-z
-x+y,y,-z+1/2
-x,-x+y,-z
-x,-y,-z
-x+y,-x,-z-1/2
y,-x+y,-z
x,y,-z-1/2
x-y,x,-z
-y,x-y,-z-1/2
y,x,z-1/2
-x+y,y,z
-x,-x+y,z-1/2
-y,-x,z
x-y,-y,z-1/2
x,x-y,z
loop_
_atom_site_label
_atom_site_type_symbol
_atom_site_fract_x
_atom_site_fract_y
_atom_site_fract_z
_atom_site_occupancy
_atom_site_U_iso_or_equiv
Fe2 Fe+3 0.3333 0.6667 0.0364 1 0.0
Fe8 Fe+2 0.1667 -0.1667 0.1883 0.77 0.0
O2 O-2 -0.1667 0.1667 0.0688 1 0.0
Fe1 Fe+2 0 0 0 1 0.0
O5 O-2 0.6667 0.3333 0.112 1 0.0
Fe5 Fe+2 0 0 0.124 1 0.0
Fe10 Fe+3 0.3333 0.6667 0.25 1 0.0
Fe6 Fe+3 0.3333 0.6667 0.1396 1 0.0
O10 O-2 0 0.5 0.25 1 0.0
Ba1 Ba+2 0 0 0.25 1 0.0
Fe9 Fe+3 0.6667 0.3333 0.226 1 0.0
Ba2 Ba+2 0.6667 0.3333 0.0265 1 0.0
O1 O-2 0.1667 -0.1667 0.0265 1 0.0
Fe3 Fe+3 0 0 0.0566 1 0.0
O3 O-2 0.3333 0.6667 0.0688 1 0.0
Fe4 Fe+3 0.5 0 0.0933 1 0.0
O4 O-2 0.1667 -0.1667 0.112 1 0.0
Fe7 Fe+3 0.6667 0.3333 0.1505 1 0.0
O6 O-2 0.5 0 0.1641 1 0.0
O9 O-2 0.3333 0.6667 0.211 1 0.0
Co3 Co+2 0.1667 -0.1667 0.1883 0.23 0.0
O8 O-2 -0.1667 0.1667 0.211 1 0.0
O7 O-2 0 0 0.1641 1 0.0
