#------------------------------------------------------------------------------
#$Date: 2016-02-13 21:28:24 +0200 (Sat, 13 Feb 2016) $
#$Revision: 176429 $
#$URL: svn://www.crystallography.net/cod/cif/1/53/34/1533402.cif $
#------------------------------------------------------------------------------
#
# This file is available in the Crystallography Open Database (COD),
# http://www.crystallography.net/
#
# All data on this site have been placed in the public domain by the
# contributors.
#
data_1533402
loop_
_publ_author_name
'Schmid-Beurmann, P.'
'Thangadurai, V.'
'Weppner, W.'
_publ_section_title
;
 Phase transitions in the (Sr Sn O3) - (Sr Fe O3) solid solutions: X-ray
 diffraction and Mossbauer studies
;
_journal_name_full               'Journal of Solid State Chemistry'
_journal_page_first              392
_journal_page_last               402
_journal_volume                  174
_journal_year                    2003
_chemical_formula_sum            'Fe0.7 O3 Sn0.3 Sr'
_chemical_name_systematic        'Sr (Sn0.3 Fe0.7) O3'
_space_group_IT_number           221
_symmetry_space_group_name_Hall  '-P 4 2 3'
_symmetry_space_group_name_H-M   'P m -3 m'
_cell_angle_alpha                90
_cell_angle_beta                 90
_cell_angle_gamma                90
_cell_formula_units_Z            1
_cell_length_a                   3.945
_cell_length_b                   3.945
_cell_length_c                   3.945
_cell_volume                     61.396
_citation_journal_id_ASTM        JSSCBI
_cod_data_source_file            Schmid-Beurmann_JSSCBI_2003_148.cif
_cod_data_source_block           Fe0.7O3Sn0.3Sr1
_cod_original_cell_volume        61.39613
_cod_original_formula_sum        'Fe0.7 O3 Sn0.3 Sr1'
_cod_database_code               1533402
loop_
_symmetry_equiv_pos_as_xyz
x,y,z
-y,x,z
-x,-y,z
y,-x,z
x,-y,-z
y,x,-z
-x,y,-z
-y,-x,-z
z,x,y
-x,z,y
-z,-x,y
x,-z,y
z,-x,-y
x,z,-y
-z,x,-y
-x,-z,-y
y,z,x
y,-z,-x
z,y,-x
-y,z,-x
-z,-y,-x
-y,-z,x
z,-y,x
-z,y,x
-x,-y,-z
y,-x,-z
x,y,-z
-y,x,-z
-x,y,z
-y,-x,z
x,-y,z
y,x,z
-z,-x,-y
x,-z,-y
z,x,-y
-x,z,-y
-z,x,y
-x,-z,y
z,-x,y
x,z,y
-y,-z,-x
-y,z,x
-z,-y,x
y,-z,x
z,y,x
y,z,-x
-z,y,-x
z,-y,-x
loop_
_atom_site_label
_atom_site_type_symbol
_atom_site_fract_x
_atom_site_fract_y
_atom_site_fract_z
_atom_site_occupancy
_atom_site_U_iso_or_equiv
O1 O-2 0 0.5 0.5 1 0.0
Sr1 Sr+2 0 0 0 1 0.0
Sn1 Sn+4 0.5 0.5 0.5 0.3 0.0
Fe1 Fe+4 0.5 0.5 0.5 0.7 0.0
