#------------------------------------------------------------------------------
#$Date: 2016-02-13 21:28:24 +0200 (Sat, 13 Feb 2016) $
#$Revision: 176429 $
#$URL: svn://www.crystallography.net/cod/cif/1/53/32/1533247.cif $
#------------------------------------------------------------------------------
#
# This file is available in the Crystallography Open Database (COD),
# http://www.crystallography.net/
#
# All data on this site have been placed in the public domain by the
# contributors.
#
data_1533247
loop_
_publ_author_name
'Yang, L.T.'
'Liang, J.K.'
'Liu, F.S.'
'Liu, Q.L.'
'Luo, J.'
'Rao, G.H.'
_publ_section_title
;
 Synthesis, crystal structure and physical properties of Fe Sr2 (Ce3/2
 Ln1/2) Cu2 O10-d (Ln = Eu, Gd and Tb)
;
_journal_name_full               'Journal of Alloys Compd.'
_journal_page_first              53
_journal_page_last               58
_journal_volume                  373
_journal_year                    2004
_chemical_formula_sum            'Ce1.5 Cu2 Fe Gd0.5 O9.41 Sr2'
_chemical_name_systematic        'Sr2 (Ce1.5 Gd0.5) (Fe Cu2 O9.41)'
_space_group_IT_number           139
_symmetry_space_group_name_Hall  '-I 4 2'
_symmetry_space_group_name_H-M   'I 4/m m m'
_cell_angle_alpha                90
_cell_angle_beta                 90
_cell_angle_gamma                90
_cell_formula_units_Z            2
_cell_length_a                   3.8477
_cell_length_b                   3.8477
_cell_length_c                   28.1991
_cell_volume                     417.482
_citation_journal_id_ASTM        JALCEU
_cod_data_source_file            Yang_JALCEU_2004_1496.cif
_cod_data_source_block           Ce1.5Cu2Fe1Gd0.5O9.41Sr2
_cod_original_cell_volume        417.4819
_cod_original_formula_sum        'Ce1.5 Cu2 Fe1 Gd0.5 O9.41 Sr2'
_cod_database_code               1533247
loop_
_symmetry_equiv_pos_as_xyz
x,y,z
-y,x,z
-x,-y,z
y,-x,z
x,-y,-z
y,x,-z
-x,y,-z
-y,-x,-z
-x,-y,-z
y,-x,-z
x,y,-z
-y,x,-z
-x,y,z
-y,-x,z
x,-y,z
y,x,z
x+1/2,y+1/2,z+1/2
-y+1/2,x+1/2,z+1/2
-x+1/2,-y+1/2,z+1/2
y+1/2,-x+1/2,z+1/2
x+1/2,-y+1/2,-z+1/2
y+1/2,x+1/2,-z+1/2
-x+1/2,y+1/2,-z+1/2
-y+1/2,-x+1/2,-z+1/2
-x+1/2,-y+1/2,-z+1/2
y+1/2,-x+1/2,-z+1/2
x+1/2,y+1/2,-z+1/2
-y+1/2,x+1/2,-z+1/2
-x+1/2,y+1/2,z+1/2
-y+1/2,-x+1/2,z+1/2
x+1/2,-y+1/2,z+1/2
y+1/2,x+1/2,z+1/2
loop_
_atom_site_label
_atom_site_type_symbol
_atom_site_fract_x
_atom_site_fract_y
_atom_site_fract_z
_atom_site_occupancy
_atom_site_U_iso_or_equiv
Ce1 Ce+3 0 0 0.2949 0.75 0.0
Cu2 Cu+2 0 0 0.1391 0.667 0.0
Sr1 Sr+2 0 0 0.42322 1 0.0
O2 O-2 0 0 0.0799 1 0.0
Fe2 Fe+3 0 0 0.1391 0.333 0.0
Fe1 Fe+3 0 0 0 0.333 0.0
O1 O-2 0 0.5 0 0.705 0.0
O4 O-2 0 0.5 0.25 1 0.0
Gd1 Gd+3 0 0 0.2949 0.25 0.0
O3 O-2 0 0.5 0.1463 1 0.0
Cu1 Cu+2 0 0 0 0.667 0.0
