#------------------------------------------------------------------------------
#$Date: 2015-10-05 11:43:24 +0300 (Mon, 05 Oct 2015) $
#$Revision: 159637 $
#$URL: svn://www.crystallography.net/cod/cif/1/53/33/1533399.cif $
#------------------------------------------------------------------------------
#
# This file is available in the Crystallography Open Database (COD),
# http://www.crystallography.net/
#
# All data on this site have been placed in the public domain by the
# contributors.
#
data_1533399
loop_
_publ_author_name
'Akimov, A.I.'
'Letko, A.K.'
'Rubtsov, V.A.'
'Savchuk, G.K.'
_publ_section_title
;
 Investigation of the effect of cation and anion deficiency on the lead
 titanate crystalline structure
;
_journal_name_full               'Vestsi Natsyyanal'nai Akad. Navuk Belar'
_journal_page_first              85
_journal_page_last               90
_journal_volume                  2002
_journal_year                    2002
_chemical_formula_sum            'O2.97 Pb0.984 Ti0.96'
_chemical_name_systematic        'Pb0.984 (Ti0.96 O2.97)'
_space_group_IT_number           99
_symmetry_space_group_name_Hall  'P 4 -2'
_symmetry_space_group_name_H-M   'P 4 m m'
_cell_angle_alpha                90
_cell_angle_beta                 90
_cell_angle_gamma                90
_cell_formula_units_Z            1
_cell_length_a                   3.90236
_cell_length_b                   3.90236
_cell_length_c                   4.1583
_cell_volume                     63.324
_citation_journal_id_ASTM        VNBFF9
_cod_data_source_file            Akimov_VNBFF9_2002_1043.cif
_cod_data_source_block           O2.97Pb0.984Ti0.96
_cod_original_cell_volume        63.32431
_cod_database_code               1533399
loop_
_symmetry_equiv_pos_as_xyz
x,y,z
-y,x,z
-x,-y,z
y,-x,z
-x,y,z
-y,-x,z
x,-y,z
y,x,z
loop_
_atom_site_label
_atom_site_type_symbol
_atom_site_fract_x
_atom_site_fract_y
_atom_site_fract_z
_atom_site_occupancy
_atom_site_U_iso_or_equiv
O1 O-2 0.5 0.5 0.1266 1 0.0
Pb1 Pb+2 0 0 0 0.9844 0.0
Ti1 Ti+4 0.5 0.5 0.5537 0.96 0.0
O2 O-2 0.5 0 0.5838 0.98 0.0
