#------------------------------------------------------------------------------
#$Date: 2016-02-13 21:28:24 +0200 (Sat, 13 Feb 2016) $
#$Revision: 176429 $
#$URL: svn://www.crystallography.net/cod/cif/1/53/32/1533294.cif $
#------------------------------------------------------------------------------
#
# This file is available in the Crystallography Open Database (COD),
# http://www.crystallography.net/
#
# All data on this site have been placed in the public domain by the
# contributors.
#
data_1533294
loop_
_publ_author_name
'Zemni, S.'
'Cherif, K.'
'Dhahri, Ja.'
'Ghedira, M.'
'Dhahri, J.'
'Vincent, H.'
'Oumezzine, M.'
_publ_section_title
;
 The effect of cation radii on structural, magnetic and electrical
 properties of doped manganites La0.6-x Prx Sr0.4 Mn O3
;
_journal_name_full               'Journal of Solid State Chemistry'
_journal_page_first              2387
_journal_page_last               2393
_journal_volume                  177
_journal_year                    2004
_chemical_formula_sum            'La0.06 Mn O3 Pr0.54 Sr0.4'
_chemical_name_systematic        '(La0.06 Pr0.54 Sr0.4) (Mn O3)'
_space_group_IT_number           62
_symmetry_space_group_name_Hall  '-P 2ac 2n'
_symmetry_space_group_name_H-M   'P n m a'
_cell_angle_alpha                90
_cell_angle_beta                 90
_cell_angle_gamma                90
_cell_formula_units_Z            4
_cell_length_a                   5.4544
_cell_length_b                   7.6712
_cell_length_c                   5.4868
_cell_volume                     229.578
_citation_journal_id_ASTM        JSSCBI
_cod_data_source_file            Zemni_JSSCBI_2004_1769.cif
_cod_data_source_block           La0.06Mn1O3Pr0.54Sr0.4
_cod_original_cell_volume        229.5776
_cod_original_formula_sum        'La0.06 Mn1 O3 Pr0.54 Sr0.4'
_cod_database_code               1533294
loop_
_symmetry_equiv_pos_as_xyz
x,y,z
-x+1/2,-y,z+1/2
x+1/2,-y+1/2,-z+1/2
-x,y+1/2,-z
-x,-y,-z
x-1/2,y,-z-1/2
-x-1/2,y-1/2,z-1/2
x,-y-1/2,z
loop_
_atom_site_label
_atom_site_type_symbol
_atom_site_fract_x
_atom_site_fract_y
_atom_site_fract_z
_atom_site_occupancy
_atom_site_U_iso_or_equiv
O2 O-2 0.2562 0.0283 0.7461 1 0.0
Sr1 Sr+2 0.01 0.25 -0.0009 0.4 0.0
O1 O-2 0.5063 0.25 0.0438 1 0.0
Pr1 Pr+3 0.01 0.25 -0.0009 0.54 0.0
La1 La+3 0.01 0.25 -0.0009 0.06 0.0
Mn1 Mn+3 0.5 0 0 1 0.0
