#------------------------------------------------------------------------------
#$Date: 2016-02-13 21:28:24 +0200 (Sat, 13 Feb 2016) $
#$Revision: 176429 $
#$URL: svn://www.crystallography.net/cod/cif/1/53/37/1533774.cif $
#------------------------------------------------------------------------------
#
# This file is available in the Crystallography Open Database (COD),
# http://www.crystallography.net/
#
# All data on this site have been placed in the public domain by the
# contributors.
#
data_1533774
loop_
_publ_author_name
'Hinatsu, Y.'
'Taira, N.'
'Wakeshima, M.'
'Kawabuchi, N.'
_publ_section_title
;
 Structures and magnetic properties of rare earth rhenium oxides Ln3 Re O7
 (Ln = Gd, Tb and Dy)
;
_journal_name_full               'Journal of Alloys Compd.'
_journal_page_first              79
_journal_page_last               83
_journal_volume                  374
_journal_year                    2004
_chemical_formula_sum            'O7 Re Tb3'
_chemical_name_systematic        'Tb3 O (Re O6)'
_space_group_IT_number           63
_symmetry_space_group_name_Hall  '-C 2c 2'
_symmetry_space_group_name_H-M   'C m c m'
_cell_angle_alpha                90
_cell_angle_beta                 90
_cell_angle_gamma                90
_cell_formula_units_Z            4
_cell_length_a                   10.51
_cell_length_b                   7.364
_cell_length_c                   7.414
_cell_volume                     573.811
_citation_journal_id_ASTM        JALCEU
_cod_data_source_file            Hinatsu_JALCEU_2004_1508.cif
_cod_data_source_block           O7Re1Tb3
_cod_original_cell_volume        573.8113
_cod_original_formula_sum        'O7 Re1 Tb3'
_cod_database_code               1533774
loop_
_symmetry_equiv_pos_as_xyz
x,y,z
-x,-y,z+1/2
x,-y,-z
-x,y,-z+1/2
-x,-y,-z
x,y,-z-1/2
-x,y,z
x,-y,z-1/2
x+1/2,y+1/2,z
-x+1/2,-y+1/2,z+1/2
x+1/2,-y+1/2,-z
-x+1/2,y+1/2,-z+1/2
-x+1/2,-y+1/2,-z
x+1/2,y+1/2,-z-1/2
-x+1/2,y+1/2,z
x+1/2,-y+1/2,z-1/2
loop_
_atom_site_label
_atom_site_type_symbol
_atom_site_fract_x
_atom_site_fract_y
_atom_site_fract_z
_atom_site_occupancy
_atom_site_U_iso_or_equiv
Re1 Re+5 0 0 0 1 0.0
Tb2 Tb+3 0.2713 0.2913 0.25 1 0.0
O2 O-2 0.142 0.196 0.042 1 0.0
O1 O-2 0.5 0.436 0.25 1 0.0
Tb1 Tb+3 0 0.5 0 1 0.0
O3 O-2 0.379 0.019 0.25 1 0.0
