#------------------------------------------------------------------------------
#$Date: 2016-02-13 21:28:24 +0200 (Sat, 13 Feb 2016) $
#$Revision: 176429 $
#$URL: svn://www.crystallography.net/cod/cif/1/53/31/1533118.cif $
#------------------------------------------------------------------------------
#
# This file is available in the Crystallography Open Database (COD),
# http://www.crystallography.net/
#
# All data on this site have been placed in the public domain by the
# contributors.
#
data_1533118
loop_
_publ_author_name
'El Ataoui, K.'
'Doumerc, J.P.'
'Wattiaux, A.'
'Pouchard, M.'
'Ammar, A.'
'Fournes, L.'
'Gravereau, P.'
_publ_section_title
;
 Preparation, structural characterization and Moessbauer study of theCu
 Fe1-x Vx O2 (0 <= x <= 0.67) delafossite-type solution
;
_journal_name_full               'Solid State Sciences'
_journal_page_first              1239
_journal_page_last               1245
_journal_volume                  5
_journal_year                    2003
_chemical_formula_sum            'Cu Fe0.75 O2 V0.25'
_chemical_name_systematic        'Cu (Fe0.75 V0.25) O2'
_space_group_IT_number           166
_symmetry_space_group_name_Hall  '-R 3 2"'
_symmetry_space_group_name_H-M   'R -3 m :H'
_cell_angle_alpha                90
_cell_angle_beta                 90
_cell_angle_gamma                120
_cell_formula_units_Z            3
_cell_length_a                   3.0304
_cell_length_b                   3.0304
_cell_length_c                   17.172
_cell_volume                     136.569
_citation_journal_id_ASTM        SSSCFJ
_cod_data_source_file            ElAtaoui_SSSCFJ_2003_946.cif
_cod_data_source_block           Cu1Fe0.75O2V0.25
_cod_original_cell_volume        136.5688
_cod_original_formula_sum        'Cu1 Fe0.75 O2 V0.25'
_cod_database_code               1533118
loop_
_symmetry_equiv_pos_as_xyz
x,y,z
-y,x-y,z
-x+y,-x,z
y,x,-z
-x,-x+y,-z
x-y,-y,-z
-x,-y,-z
y,-x+y,-z
x-y,x,-z
-y,-x,z
x,x-y,z
-x+y,y,z
x+2/3,y+1/3,z+1/3
-y+2/3,x-y+1/3,z+1/3
-x+y+2/3,-x+1/3,z+1/3
y+2/3,x+1/3,-z+1/3
-x+2/3,-x+y+1/3,-z+1/3
x-y+2/3,-y+1/3,-z+1/3
-x+2/3,-y+1/3,-z+1/3
y+2/3,-x+y+1/3,-z+1/3
x-y+2/3,x+1/3,-z+1/3
-y+2/3,-x+1/3,z+1/3
x+2/3,x-y+1/3,z+1/3
-x+y+2/3,y+1/3,z+1/3
x+1/3,y+2/3,z+2/3
-y+1/3,x-y+2/3,z+2/3
-x+y+1/3,-x+2/3,z+2/3
y+1/3,x+2/3,-z+2/3
-x+1/3,-x+y+2/3,-z+2/3
x-y+1/3,-y+2/3,-z+2/3
-x+1/3,-y+2/3,-z+2/3
y+1/3,-x+y+2/3,-z+2/3
x-y+1/3,x+2/3,-z+2/3
-y+1/3,-x+2/3,z+2/3
x+1/3,x-y+2/3,z+2/3
-x+y+1/3,y+2/3,z+2/3
loop_
_atom_site_label
_atom_site_type_symbol
_atom_site_fract_x
_atom_site_fract_y
_atom_site_fract_z
_atom_site_occupancy
_atom_site_U_iso_or_equiv
O1 O-2 0 0 0.106 1 0.0
V1 V+3 0 0 0.5 0.25 0.0
Fe1 Fe+3 0 0 0.5 0.75 0.0
Cu1 Cu+1 0 0 0 1 0.0
