#------------------------------------------------------------------------------
#$Date: 2015-10-05 14:03:02 +0300 (Mon, 05 Oct 2015) $
#$Revision: 160051 $
#$URL: svn://www.crystallography.net/cod/cif/1/53/37/1533773.cif $
#------------------------------------------------------------------------------
#
# This file is available in the Crystallography Open Database (COD),
# http://www.crystallography.net/
#
# All data on this site have been placed in the public domain by the
# contributors.
#
data_1533773
loop_
_publ_author_name
'Stoyanova, R.'
'Zhecheva, E.'
'Alcantara, R.'
'Boffa Ballaran, T.'
'Tirado, J.L.'
'Bromiley, F.'
'Bromiley, G.'
_publ_section_title
;
 Lithium/nickel mixing in the transition metal layers of lithium
 nickelate: high-pressure synthesis of layered Li (Lix Ni1-x) O2 oxides as
 cathode materials for lithium-ion batteries
;
_journal_name_full               'Solid State Ionics'
_journal_page_first              197
_journal_page_last               204
_journal_volume                  161
_journal_year                    2003
_chemical_formula_sum            'Li1.142 Ni0.858 O2'
_chemical_name_systematic        '(Li0.957 Ni0.043) ((Li0.185 Ni0.815) O2)'
_space_group_IT_number           166
_symmetry_space_group_name_Hall  '-R 3 2"'
_symmetry_space_group_name_H-M   'R -3 m :H'
_cell_angle_alpha                90
_cell_angle_beta                 90
_cell_angle_gamma                120
_cell_formula_units_Z            3
_cell_length_a                   2.83192
_cell_length_b                   2.83192
_cell_length_c                   14.099
_cell_volume                     97.922
_citation_journal_id_ASTM        SSIOD3
_cod_data_source_file            Stoyanova_SSIOD3_2003_919.cif
_cod_data_source_block           Li1.142Ni0.858O2
_cod_original_cell_volume        97.92213
_cod_database_code               1533773
loop_
_symmetry_equiv_pos_as_xyz
x,y,z
-y,x-y,z
-x+y,-x,z
y,x,-z
-x,-x+y,-z
x-y,-y,-z
-x,-y,-z
y,-x+y,-z
x-y,x,-z
-y,-x,z
x,x-y,z
-x+y,y,z
x+2/3,y+1/3,z+1/3
-y+2/3,x-y+1/3,z+1/3
-x+y+2/3,-x+1/3,z+1/3
y+2/3,x+1/3,-z+1/3
-x+2/3,-x+y+1/3,-z+1/3
x-y+2/3,-y+1/3,-z+1/3
-x+2/3,-y+1/3,-z+1/3
y+2/3,-x+y+1/3,-z+1/3
x-y+2/3,x+1/3,-z+1/3
-y+2/3,-x+1/3,z+1/3
x+2/3,x-y+1/3,z+1/3
-x+y+2/3,y+1/3,z+1/3
x+1/3,y+2/3,z+2/3
-y+1/3,x-y+2/3,z+2/3
-x+y+1/3,-x+2/3,z+2/3
y+1/3,x+2/3,-z+2/3
-x+1/3,-x+y+2/3,-z+2/3
x-y+1/3,-y+2/3,-z+2/3
-x+1/3,-y+2/3,-z+2/3
y+1/3,-x+y+2/3,-z+2/3
x-y+1/3,x+2/3,-z+2/3
-y+1/3,-x+2/3,z+2/3
x+1/3,x-y+2/3,z+2/3
-x+y+1/3,y+2/3,z+2/3
loop_
_atom_site_label
_atom_site_type_symbol
_atom_site_fract_x
_atom_site_fract_y
_atom_site_fract_z
_atom_site_occupancy
_atom_site_U_iso_or_equiv
Li1 Li+1 0 0 0.5 0.957 0.0
Ni1 Ni+3 0 0 0.5 0.043 0.0
O1 O-2 0 0 0.2587 1 0.0
Ni2 Ni+3 0 0 0 0.815 0.0
Li2 Li+1 0 0 0 0.185 0.0
