#------------------------------------------------------------------------------
#$Date: 2018-09-27 07:13:35 +0300 (Thu, 27 Sep 2018) $
#$Revision: 211196 $
#$URL: file:///home/coder/svn-repositories/cod/cif/1/53/31/1533117.cif $
#------------------------------------------------------------------------------
#
# This file is available in the Crystallography Open Database (COD),
# http://www.crystallography.net/
#
# All data on this site have been placed in the public domain by the
# contributors.
#
data_1533117
loop_
_publ_author_name
'El Ataoui, K.'
'Doumerc, J.P.'
'Fournes, L.'
'Ammar, A.'
'Pouchard, M.'
'Gravereau, P.'
'Wattiaux, A.'
_publ_section_title
;
 Preparation, structural characterization and Moessbauer study of the Cu
 Fe1-x Vx O2 (0 <= x <= 0.67) delafossite-type solution
;
_journal_name_full               'Solid State Sciences'
_journal_page_first              1239
_journal_page_last               1245
_journal_volume                  5
_journal_year                    2003
_chemical_formula_sum            'Cu Fe O2'
_space_group_IT_number           166
_symmetry_space_group_name_Hall  '-R 3 2"'
_symmetry_space_group_name_H-M   'R -3 m :H'
_cell_angle_alpha                90
_cell_angle_beta                 90
_cell_angle_gamma                120
_cell_formula_units_Z            3
_cell_length_a                   3.0345
_cell_length_b                   3.0345
_cell_length_c                   17.166
_cell_volume                     136.891
_citation_journal_id_ASTM        SSSCFJ
_cod_data_source_file            ElAtaoui_SSSCFJ_2003_945.cif
_cod_data_source_block           Cu1Fe1O2
_cod_original_cell_volume        136.8907
_cod_original_formula_sum        'Cu1 Fe1 O2'
_cod_database_code               1533117
loop_
_symmetry_equiv_pos_as_xyz
x,y,z
-y,x-y,z
-x+y,-x,z
y,x,-z
-x,-x+y,-z
x-y,-y,-z
-x,-y,-z
y,-x+y,-z
x-y,x,-z
-y,-x,z
x,x-y,z
-x+y,y,z
x+2/3,y+1/3,z+1/3
-y+2/3,x-y+1/3,z+1/3
-x+y+2/3,-x+1/3,z+1/3
y+2/3,x+1/3,-z+1/3
-x+2/3,-x+y+1/3,-z+1/3
x-y+2/3,-y+1/3,-z+1/3
-x+2/3,-y+1/3,-z+1/3
y+2/3,-x+y+1/3,-z+1/3
x-y+2/3,x+1/3,-z+1/3
-y+2/3,-x+1/3,z+1/3
x+2/3,x-y+1/3,z+1/3
-x+y+2/3,y+1/3,z+1/3
x+1/3,y+2/3,z+2/3
-y+1/3,x-y+2/3,z+2/3
-x+y+1/3,-x+2/3,z+2/3
y+1/3,x+2/3,-z+2/3
-x+1/3,-x+y+2/3,-z+2/3
x-y+1/3,-y+2/3,-z+2/3
-x+1/3,-y+2/3,-z+2/3
y+1/3,-x+y+2/3,-z+2/3
x-y+1/3,x+2/3,-z+2/3
-y+1/3,-x+2/3,z+2/3
x+1/3,x-y+2/3,z+2/3
-x+y+1/3,y+2/3,z+2/3
loop_
_atom_site_label
_atom_site_type_symbol
_atom_site_fract_x
_atom_site_fract_y
_atom_site_fract_z
_atom_site_occupancy
_atom_site_U_iso_or_equiv
Fe1 Fe+3 0 0 0.5 1 0.0
O1 O-2 0 0 0.104 1 0.0
Cu1 Cu+1 0 0 0 1 0.0
