#------------------------------------------------------------------------------
#$Date: 2016-02-13 21:28:24 +0200 (Sat, 13 Feb 2016) $
#$Revision: 176429 $
#$URL: svn://www.crystallography.net/cod/cif/1/53/33/1533314.cif $
#------------------------------------------------------------------------------
#
# This file is available in the Crystallography Open Database (COD),
# http://www.crystallography.net/
#
# All data on this site have been placed in the public domain by the
# contributors.
#
data_1533314
loop_
_publ_author_name
'Zhang, Y.B.'
'Li, S.'
'Sun, C.Q.'
'Gao, W.'
_publ_section_title
;
 Possible origin of magnetic transition ordering in La2/3 A1/3 Mn O3
 oxides
;
_journal_name_full               'Materials Science and Engineering B'
_journal_page_first              54
_journal_page_last               59
_journal_volume                  98
_journal_year                    2003
_chemical_formula_sum            'Ba0.041625 Ca0.291375 La0.667 Mn O3'
_chemical_name_systematic        '(La0.667 (Ba0.125 Ca0.875)0.333) Mn O3'
_space_group_IT_number           62
_symmetry_space_group_name_Hall  '-P 2c 2ab'
_symmetry_space_group_name_H-M   'P b n m'
_cell_angle_alpha                90
_cell_angle_beta                 90
_cell_angle_gamma                90
_cell_formula_units_Z            4
_cell_length_a                   5.4916
_cell_length_b                   5.4686
_cell_length_c                   7.7295
_cell_volume                     232.127
_citation_journal_id_ASTM        MSBTEK
_cod_data_source_file            Zhang_MSBTEK_2003_557.cif
_cod_data_source_block           Ba0.041625Ca0.291375La0.667Mn1O3
_cod_original_cell_volume        232.1274
_cod_original_sg_symbol_Hall     '-P 2ac 2n (z,x,y)'
_cod_original_formula_sum        'Ba0.041625 Ca0.291375 La0.667 Mn1 O3'
_cod_database_code               1533314
loop_
_symmetry_equiv_pos_as_xyz
x,y,z
x+1/2,-y+1/2,-z
-x+1/2,y+1/2,-z+1/2
-x,-y,z+1/2
-x,-y,-z
-x-1/2,y-1/2,z
x-1/2,-y-1/2,z-1/2
x,y,-z-1/2
loop_
_atom_site_label
_atom_site_type_symbol
_atom_site_fract_x
_atom_site_fract_y
_atom_site_fract_z
_atom_site_occupancy
_atom_site_U_iso_or_equiv
O2 O-2 0.726 0.264 0.034 1 0.0
La1 La+3 0.997 0.016 0.25 0.667 0.0
Mn1 Mn+3 0.5 0 0 1 0.0
O1 O-2 0.051 0.484 0.25 1 0.0
Ba1 Ba+2 0.997 0.016 0.25 0.042 0.0
Ca1 Ca+2 0.997 0.016 0.25 0.291 0.0
