#------------------------------------------------------------------------------
#$Date: 2016-02-13 21:28:24 +0200 (Sat, 13 Feb 2016) $
#$Revision: 176429 $
#$URL: svn://www.crystallography.net/cod/cif/1/53/32/1533281.cif $
#------------------------------------------------------------------------------
#
# This file is available in the Crystallography Open Database (COD),
# http://www.crystallography.net/
#
# All data on this site have been placed in the public domain by the
# contributors.
#
data_1533281
loop_
_publ_author_name
'Zavaliy, I.Yu.'
'Cerny, R.'
'Koval'chuk, I.V.'
'Saldan, I.V.'
_publ_section_title
;
 Hydrogenation of oxygen-stabilized Zr3 Ni Ox compounds
;
_journal_name_full               'Journal of Alloys Compd.'
_journal_page_first              173
_journal_page_last               182
_journal_volume                  360
_journal_year                    2003
_chemical_formula_sum            'Ni O0.38 Zr3'
_chemical_name_systematic        'Zr3 Ni O0.38'
_space_group_IT_number           63
_symmetry_space_group_name_Hall  '-C 2c 2'
_symmetry_space_group_name_H-M   'C m c m'
_cell_angle_alpha                90
_cell_angle_beta                 90
_cell_angle_gamma                90
_cell_formula_units_Z            4
_cell_length_a                   3.2928
_cell_length_b                   10.9445
_cell_length_c                   8.9103
_cell_volume                     321.110
_citation_journal_id_ASTM        JALCEU
_cod_data_source_file            Zavaliy_JALCEU_2003_77.cif
_cod_data_source_block           Ni1O0.38Zr3
_cod_original_cell_volume        321.1098
_cod_original_formula_sum        'Ni1 O0.38 Zr3'
_cod_database_code               1533281
loop_
_symmetry_equiv_pos_as_xyz
x,y,z
-x,-y,z+1/2
x,-y,-z
-x,y,-z+1/2
-x,-y,-z
x,y,-z-1/2
-x,y,z
x,-y,z-1/2
x+1/2,y+1/2,z
-x+1/2,-y+1/2,z+1/2
x+1/2,-y+1/2,-z
-x+1/2,y+1/2,-z+1/2
-x+1/2,-y+1/2,-z
x+1/2,y+1/2,-z-1/2
-x+1/2,y+1/2,z
x+1/2,-y+1/2,z-1/2
loop_
_atom_site_label
_atom_site_type_symbol
_atom_site_fract_x
_atom_site_fract_y
_atom_site_fract_z
_atom_site_occupancy
_atom_site_U_iso_or_equiv
Zr1 Zr 0 0.9294 0.25 1 0.0
Ni1 Ni 0 0.2383 0.25 1 0.0
Zr2 Zr 0 0.3645 0.556 1 0.0
O1 O 0 0 0 0.38 0.0
