#------------------------------------------------------------------------------
#$Date: 2016-02-13 21:28:24 +0200 (Sat, 13 Feb 2016) $
#$Revision: 176429 $
#$URL: svn://www.crystallography.net/cod/cif/1/53/30/1533083.cif $
#------------------------------------------------------------------------------
#
# This file is available in the Crystallography Open Database (COD),
# http://www.crystallography.net/
#
# All data on this site have been placed in the public domain by the
# contributors.
#
data_1533083
loop_
_publ_author_name
'Sanz, J.'
'Varez, A.'
'Alonso, J.A.'
'Fernandez, M.T.'
_publ_section_title
;
 Structural changes produced during heating of the fast ion conductor
 Li0.18 La0.61 Ti O3. A neutron diffraction study
;
_journal_name_full               'Journal of Solid State Chemistry'
_journal_page_first              1157
_journal_page_last               1164
_journal_volume                  177
_journal_year                    2004
_chemical_formula_sum            'La0.61 Li0.18 O3 Ti'
_chemical_name_systematic        '(Li0.18 La0.118) La0.492 (Ti O3)'
_space_group_IT_number           65
_symmetry_space_group_name_Hall  '-C 2 2'
_symmetry_space_group_name_H-M   'C m m m'
_cell_angle_alpha                90
_cell_angle_beta                 90
_cell_angle_gamma                90
_cell_formula_units_Z            8
_cell_length_a                   7.731
_cell_length_b                   7.75
_cell_length_c                   7.787
_cell_volume                     466.560
_citation_journal_id_ASTM        JSSCBI
_cod_data_source_file            Sanz_JSSCBI_2004_1634.cif
_cod_data_source_block           La0.61Li0.18O3Ti1
_cod_original_cell_volume        466.5601
_cod_original_formula_sum        'La0.61 Li0.18 O3 Ti1'
_cod_database_code               1533083
loop_
_symmetry_equiv_pos_as_xyz
x,y,z
-x,-y,z
x,-y,-z
-x,y,-z
-x,-y,-z
x,y,-z
-x,y,z
x,-y,z
x+1/2,y+1/2,z
-x+1/2,-y+1/2,z
x+1/2,-y+1/2,-z
-x+1/2,y+1/2,-z
-x+1/2,-y+1/2,-z
x+1/2,y+1/2,-z
-x+1/2,y+1/2,z
x+1/2,-y+1/2,z
loop_
_atom_site_label
_atom_site_type_symbol
_atom_site_fract_x
_atom_site_fract_y
_atom_site_fract_z
_atom_site_occupancy
_atom_site_U_iso_or_equiv
O1 O-2 0.2698 0 0 1 0.0
O3 O-2 0 0.5 0.2592 1 0.0
O5 O-2 0.2311 0 0.5 1 0.0
O4 O-2 0.25 0.25 0.2356 1 0.0
Ti1 Ti+4 0.2489 0 0.2606 1 0.0
La2 La+3 0 0.2608 0.5 0.235 0.0
La1 La+3 0 0.2542 0 0.983 0.0
O2 O-2 0 0 0.2136 1 0.0
Li1 Li+1 0 0.2608 0.5 0.36 0.0
