#------------------------------------------------------------------------------
#$Date: 2016-02-13 14:50:18 +0200 (Sat, 13 Feb 2016) $
#$Revision: 176428 $
#$URL: svn://www.crystallography.net/cod/cif/1/53/34/1533426.cif $
#------------------------------------------------------------------------------
#
# This file is available in the Crystallography Open Database (COD),
# http://www.crystallography.net/
#
# All data on this site have been placed in the public domain by the
# contributors.
#
data_1533426
loop_
_publ_author_name
'Seabra, M.P.'
'Pullar, R.C.'
'Avdeev, M.'
'Ferreira, V.M.'
'Alford, N.McN.'
_publ_section_title
;
 Structure and microwave dielectric properties of (La (Mg0.5 Ti0.5) O3) -
 (Ca Ti O3) system
;
_journal_name_full               'Journal of the European Ceramic Society'
_journal_page_first              2403
_journal_page_last               2408
_journal_volume                  23
_journal_year                    2003
_chemical_formula_sum            'Ca0.7 La0.3 Mg0.15 O3 Ti0.85'
_chemical_name_systematic        '(La0.3 Ca0.7) (Mg0.15 Ti0.85) O3'
_space_group_IT_number           62
_symmetry_space_group_name_Hall  '-P 2c 2ab'
_symmetry_space_group_name_H-M   'P b n m'
_cell_angle_alpha                90
_cell_angle_beta                 90
_cell_angle_gamma                90
_cell_formula_units_Z            4
_cell_length_a                   5.45517
_cell_length_b                   5.48981
_cell_length_c                   7.72955
_cell_volume                     231.483
_citation_journal_id_ASTM        JECSER
_cod_data_source_file            Seabra_JECSER_2003_121.cif
_cod_data_source_block           Ca0.7La0.3Mg0.15O3Ti0.85
_cod_original_cell_volume        231.4834
_cod_original_sg_symbol_Hall     '-P 2ac 2n (z,x,y)'
_cod_database_code               1533426
loop_
_symmetry_equiv_pos_as_xyz
x,y,z
x+1/2,-y+1/2,-z
-x+1/2,y+1/2,-z+1/2
-x,-y,z+1/2
-x,-y,-z
-x-1/2,y-1/2,z
x-1/2,-y-1/2,z-1/2
x,y,-z-1/2
loop_
_atom_site_label
_atom_site_type_symbol
_atom_site_fract_x
_atom_site_fract_y
_atom_site_fract_z
_atom_site_occupancy
_atom_site_U_iso_or_equiv
La1 La+3 -0.00617 0.02705 0.25 0.3 0.0
Ca1 Ca+2 -0.00617 0.02705 0.25 0.7 0.0
O1 O-2 0.072 0.482 0.25 1 0.0
Ti1 Ti+4 0.5 0 0 0.85 0.0
Mg1 Mg+2 0.5 0 0 0.15 0.0
O2 O-2 0.714 0.285 0.0343 1 0.0
