#------------------------------------------------------------------------------
#$Date: 2016-02-13 21:28:24 +0200 (Sat, 13 Feb 2016) $
#$Revision: 176429 $
#$URL: svn://www.crystallography.net/cod/cif/1/53/33/1533382.cif $
#------------------------------------------------------------------------------
#
# This file is available in the Crystallography Open Database (COD),
# http://www.crystallography.net/
#
# All data on this site have been placed in the public domain by the
# contributors.
#
data_1533382
loop_
_publ_author_name
'Savytskii, D.'
'Sanjuan, M.L.'
'Senyshin, A.'
'Vasylechko, L.'
'Baehtz, C.'
'Matkovskii, A.'
'Bismayer, U.'
'Berkowski, M.'
_publ_section_title
;
 Low-temperature structural and Raman studies on rare-earth gallates
;
_journal_name_full
'Physical Review, Serie 3. B - Condensed Matter (18,1978-)'
_journal_page_first              024101-1
_journal_page_last               024101-8
_journal_volume                  68
_journal_year                    2003
_chemical_formula_sum            'Ga La O3'
_chemical_name_systematic        'La (Ga O3)'
_space_group_IT_number           62
_symmetry_space_group_name_Hall  '-P 2c 2ab'
_symmetry_space_group_name_H-M   'P b n m'
_cell_angle_alpha                90
_cell_angle_beta                 90
_cell_angle_gamma                90
_cell_formula_units_Z            4
_cell_length_a                   5.51395
_cell_length_b                   5.48589
_cell_length_c                   7.76421
_cell_volume                     234.859
_citation_journal_id_ASTM        PRBMDO
_cod_data_source_file            Savytskii_PRBMDO_2003_884.cif
_cod_data_source_block           Ga1La1O3
_cod_original_sg_symbol_Hall     '-P 2ac 2n (z,x,y)'
_cod_original_formula_sum        'Ga1 La1 O3'
_cod_database_code               1533382
loop_
_symmetry_equiv_pos_as_xyz
x,y,z
x+1/2,-y+1/2,-z
-x+1/2,y+1/2,-z+1/2
-x,-y,z+1/2
-x,-y,-z
-x-1/2,y-1/2,z
x-1/2,-y-1/2,z-1/2
x,y,-z-1/2
loop_
_atom_site_label
_atom_site_type_symbol
_atom_site_fract_x
_atom_site_fract_y
_atom_site_fract_z
_atom_site_occupancy
_atom_site_U_iso_or_equiv
La1 La+3 -0.005 0.02 0.25 1 0.0
Ga1 Ga+3 0.5 0 0 1 0.0
O1 O-2 0.071 0.487 0.25 1 0.0
O2 O-2 0.719 0.277 0.0367 1 0.0
