#------------------------------------------------------------------------------
#$Date: 2016-02-13 21:28:24 +0200 (Sat, 13 Feb 2016) $
#$Revision: 176429 $
#$URL: svn://www.crystallography.net/cod/cif/1/53/38/1533821.cif $
#------------------------------------------------------------------------------
#
# This file is available in the Crystallography Open Database (COD),
# http://www.crystallography.net/
#
# All data on this site have been placed in the public domain by the
# contributors.
#
data_1533821
loop_
_publ_author_name
'Blasco, J.'
'Garcia, J.'
'Subias, G.'
'Campo, J.'
'Sanchez, M.C.'
_publ_section_title
;
 Neutron diffraction study and magnetic properties of La Mn1-x Gax O3
;
_journal_name_full
'Physical Review, Serie 3. B - Condensed Matter (18,1978-)'
_journal_page_first              174431-1
_journal_page_last               174431-10
_journal_volume                  66
_journal_year                    2002
_chemical_formula_sum            'Ga0.8 La Mn0.2 O3'
_chemical_name_systematic        'La (Mn0.2 Ga0.8) O3'
_space_group_IT_number           62
_symmetry_space_group_name_Hall  '-P 2c 2ab'
_symmetry_space_group_name_H-M   'P b n m'
_cell_angle_alpha                90
_cell_angle_beta                 90
_cell_angle_gamma                90
_cell_formula_units_Z            4
_cell_length_a                   5.523
_cell_length_b                   5.4967
_cell_length_c                   7.7965
_cell_volume                     236.688
_citation_journal_id_ASTM        PRBMDO
_cod_data_source_file            Blasco_PRBMDO_2002_39.cif
_cod_data_source_block           Ga0.8La1Mn0.2O3
_cod_original_cell_volume        236.6883
_cod_original_sg_symbol_Hall     '-P 2ac 2n (z,x,y)'
_cod_original_formula_sum        'Ga0.8 La1 Mn0.2 O3'
_cod_database_code               1533821
loop_
_symmetry_equiv_pos_as_xyz
x,y,z
x+1/2,-y+1/2,-z
-x+1/2,y+1/2,-z+1/2
-x,-y,z+1/2
-x,-y,-z
-x-1/2,y-1/2,z
x-1/2,-y-1/2,z-1/2
x,y,-z-1/2
loop_
_atom_site_label
_atom_site_type_symbol
_atom_site_fract_x
_atom_site_fract_y
_atom_site_fract_z
_atom_site_occupancy
_atom_site_U_iso_or_equiv
La1 La+3 0.9956 0.0197 0.25 1 0.0
O1 O-2 0.067 0.4918 0.25 1 0.0
O2 O-2 0.7271 0.2739 0.0364 1 0.0
Ga1 Ga+3 0 0 0 0.8 0.0
Mn1 Mn+3 0 0 0 0.2 0.0
