#------------------------------------------------------------------------------
#$Date: 2016-02-13 21:28:24 +0200 (Sat, 13 Feb 2016) $
#$Revision: 176429 $
#$URL: svn://www.crystallography.net/cod/cif/1/53/38/1533805.cif $
#------------------------------------------------------------------------------
#
# This file is available in the Crystallography Open Database (COD),
# http://www.crystallography.net/
#
# All data on this site have been placed in the public domain by the
# contributors.
#
data_1533805
loop_
_publ_author_name
'Blasco, J.'
'Garcia, J.'
'Campo, J.'
'Sanchez, M.C.'
'Subias, G.'
_publ_section_title
;
 Neutron diffraction study and magnetic properties of La Mn1-x Gax O3
;
_journal_name_full
'Physical Review, Serie 3. B - Condensed Matter (18,1978-)'
_journal_page_first              174431-1
_journal_page_last               174431-10
_journal_volume                  66
_journal_year                    2002
_chemical_formula_sum            'Ga0.4 La Mn0.6 O3'
_chemical_name_systematic        'La (Mn0.6 Ga0.4) O3'
_space_group_IT_number           62
_symmetry_space_group_name_Hall  '-P 2c 2ab'
_symmetry_space_group_name_H-M   'P b n m'
_cell_angle_alpha                90
_cell_angle_beta                 90
_cell_angle_gamma                90
_cell_formula_units_Z            4
_cell_length_a                   5.5235
_cell_length_b                   5.5796
_cell_length_c                   7.7668
_cell_volume                     239.364
_citation_journal_id_ASTM        PRBMDO
_cod_data_source_file            Blasco_PRBMDO_2002_33.cif
_cod_data_source_block           Ga0.4La1Mn0.6O3
_cod_original_cell_volume        239.3644
_cod_original_sg_symbol_Hall     '-P 2ac 2n (z,x,y)'
_cod_original_formula_sum        'Ga0.4 La1 Mn0.6 O3'
_cod_database_code               1533805
loop_
_symmetry_equiv_pos_as_xyz
x,y,z
x+1/2,-y+1/2,-z
-x+1/2,y+1/2,-z+1/2
-x,-y,z+1/2
-x,-y,-z
-x-1/2,y-1/2,z
x-1/2,-y-1/2,z-1/2
x,y,-z-1/2
loop_
_atom_site_label
_atom_site_type_symbol
_atom_site_fract_x
_atom_site_fract_y
_atom_site_fract_z
_atom_site_occupancy
_atom_site_U_iso_or_equiv
Ga1 Ga+3 0 0 0 0.4 0.0
O1 O-2 0.0699 0.4913 0.25 1 0.0
O2 O-2 0.7282 0.2898 0.0369 1 0.0
Mn1 Mn+3 0 0 0 0.6 0.0
La1 La+3 0.9934 0.0326 0.25 1 0.0
