#------------------------------------------------------------------------------
#$Date: 2016-02-13 21:28:24 +0200 (Sat, 13 Feb 2016) $
#$Revision: 176429 $
#$URL: svn://www.crystallography.net/cod/cif/1/53/37/1533795.cif $
#------------------------------------------------------------------------------
#
# This file is available in the Crystallography Open Database (COD),
# http://www.crystallography.net/
#
# All data on this site have been placed in the public domain by the
# contributors.
#
data_1533795
loop_
_publ_author_name
'Blasco, J.'
'Garcia, J.'
'Subias, G.'
'Sanchez, M.C.'
'Campo, J.'
_publ_section_title
;
 Neutron diffraction study and magnetic properties of La Mn1-x Gax O3
;
_journal_name_full
'Physical Review, Serie 3. B - Condensed Matter (18,1978-)'
_journal_page_first              174431-1
_journal_page_last               174431-10
_journal_volume                  66
_journal_year                    2002
_chemical_formula_sum            'Ga0.15 La Mn0.85 O3'
_chemical_name_systematic        'La (Mn0.85 Ga0.15) O3'
_space_group_IT_number           62
_symmetry_space_group_name_Hall  '-P 2c 2ab'
_symmetry_space_group_name_H-M   'P b n m'
_cell_angle_alpha                90
_cell_angle_beta                 90
_cell_angle_gamma                90
_cell_formula_units_Z            4
_cell_length_a                   5.5285
_cell_length_b                   5.681
_cell_length_c                   7.6948
_cell_volume                     241.674
_citation_journal_id_ASTM        PRBMDO
_cod_data_source_file            Blasco_PRBMDO_2002_30.cif
_cod_data_source_block           Ga0.15La1Mn0.85O3
_cod_original_cell_volume        241.6737
_cod_original_sg_symbol_Hall     '-P 2ac 2n (z,x,y)'
_cod_original_formula_sum        'Ga0.15 La1 Mn0.85 O3'
_cod_database_code               1533795
loop_
_symmetry_equiv_pos_as_xyz
x,y,z
x+1/2,-y+1/2,-z
-x+1/2,y+1/2,-z+1/2
-x,-y,z+1/2
-x,-y,-z
-x-1/2,y-1/2,z
x-1/2,-y-1/2,z-1/2
x,y,-z-1/2
loop_
_atom_site_label
_atom_site_type_symbol
_atom_site_fract_x
_atom_site_fract_y
_atom_site_fract_z
_atom_site_occupancy
_atom_site_U_iso_or_equiv
Mn1 Mn+3 0 0 0 0.85 0.0
La1 La+3 0.9919 0.0448 0.25 1 0.0
O1 O-2 0.0732 0.4883 0.25 1 0.0
O2 O-2 0.7263 0.3005 0.0379 1 0.0
Ga1 Ga+3 0 0 0 0.15 0.0
