#------------------------------------------------------------------------------
#$Date: 2016-02-13 21:28:24 +0200 (Sat, 13 Feb 2016) $
#$Revision: 176429 $
#$URL: svn://www.crystallography.net/cod/cif/1/53/32/1533286.cif $
#------------------------------------------------------------------------------
#
# This file is available in the Crystallography Open Database (COD),
# http://www.crystallography.net/
#
# All data on this site have been placed in the public domain by the
# contributors.
#
data_1533286
loop_
_publ_author_name
'Zavaliy, I.Yu.'
'Cerny, R.'
'Koval'chuk, I.V.'
'Saldan, I.V.'
_publ_section_title
;
 Hydrogenation of oxygen-stabilized Zr3 Ni Ox compounds
;
_journal_name_full               'Journal of Alloys Compd.'
_journal_page_first              173
_journal_page_last               182
_journal_volume                  360
_journal_year                    2003
_chemical_formula_sum            'D5.657 Ni O0.896 Zr3'
_chemical_name_systematic        'Zr3 Ni O0.896 D5.657'
_space_group_IT_number           63
_symmetry_space_group_name_Hall  '-C 2c 2'
_symmetry_space_group_name_H-M   'C m c m'
_cell_angle_alpha                90
_cell_angle_beta                 90
_cell_angle_gamma                90
_cell_formula_units_Z            4
_cell_length_a                   3.55153
_cell_length_b                   11.22912
_cell_length_c                   9.62122
_cell_volume                     383.700
_citation_journal_id_ASTM        JALCEU
_cod_data_source_file            Zavaliy_JALCEU_2003_82.cif
_cod_data_source_block           D5.657Ni1O0.896Zr3
_cod_original_cell_volume        383.6996
_cod_original_formula_sum        'D5.657 Ni1 O0.896 Zr3'
_cod_database_code               1533286
loop_
_symmetry_equiv_pos_as_xyz
x,y,z
-x,-y,z+1/2
x,-y,-z
-x,y,-z+1/2
-x,-y,-z
x,y,-z-1/2
-x,y,z
x,-y,z-1/2
x+1/2,y+1/2,z
-x+1/2,-y+1/2,z+1/2
x+1/2,-y+1/2,-z
-x+1/2,y+1/2,-z+1/2
-x+1/2,-y+1/2,-z
x+1/2,y+1/2,-z-1/2
-x+1/2,y+1/2,z
x+1/2,-y+1/2,z-1/2
loop_
_atom_site_label
_atom_site_type_symbol
_atom_site_fract_x
_atom_site_fract_y
_atom_site_fract_z
_atom_site_occupancy
_atom_site_U_iso_or_equiv
Ni1 Ni 0 0.2266 0.25 1 0.0
D3 D 0 0.1729 0.9468 0.93 0.0
D5 D 0 0.93 0.623 0.276 0.0
D1 D 0 0.726 0.25 0.935 0.0
O3 O 0 0.1729 0.9468 0.07 0.0
Zr1 Zr 0 0.9231 0.25 1 0.0
O4 O 0 0.4664 0.374 0.345 0.0
D4 D 0 0.4664 0.374 0.655 0.0
Zr2 Zr 0 0.3596 0.5528 1 0.0
D2 D 0 0.9017 0.6598 0.5 0.0
O2 O 0 0.726 0.25 0.065 0.0
O1 O 0 0 0 0.001 0.0
