#------------------------------------------------------------------------------
#$Date: 2015-10-05 13:06:12 +0300 (Mon, 05 Oct 2015) $
#$Revision: 159873 $
#$URL: svn://www.crystallography.net/cod/cif/1/53/36/1533612.cif $
#------------------------------------------------------------------------------
#
# This file is available in the Crystallography Open Database (COD),
# http://www.crystallography.net/
#
# All data on this site have been placed in the public domain by the
# contributors.
#
data_1533612
loop_
_publ_author_name
'Song Gongbao'
'Yang Lintao'
'Liang Jingkui'
'Liu, G.Y.'
'Chen, J.R.'
'Yang, H.F.'
'Rao Guanghui'
_publ_section_title
;
 Subsolidus phase relation and crystal structure in the Pr1+x-y Ba2-x-z
 Cay+z Cu3 O7+d system
;
_journal_name_full               'Appl. Phys. A'
_journal_page_first              915
_journal_page_last               921
_journal_volume                  77
_journal_year                    2003
_chemical_formula_sum            'Ba1.92 Cu3 O7.1 Pr1.08'
_chemical_name_systematic        'Pr (Pr0.08 Ba1.92) (Cu3 O7.1)'
_space_group_IT_number           47
_symmetry_space_group_name_Hall  '-P 2 2'
_symmetry_space_group_name_H-M   'P m m m'
_cell_angle_alpha                90
_cell_angle_beta                 90
_cell_angle_gamma                90
_cell_formula_units_Z            1
_cell_length_a                   3.9317
_cell_length_b                   3.877
_cell_length_c                   11.7331
_cell_volume                     178.850
_citation_journal_id_ASTM        APAMFC
_cod_data_source_file            SongGongbao_APAMFC_2003_1204.cif
_cod_data_source_block           Ba1.92Cu3O7.1Pr1.08
_cod_original_cell_volume        178.85
_cod_database_code               1533612
loop_
_symmetry_equiv_pos_as_xyz
x,y,z
-x,-y,z
x,-y,-z
-x,y,-z
-x,-y,-z
x,y,-z
-x,y,z
x,-y,z
loop_
_atom_site_label
_atom_site_type_symbol
_atom_site_fract_x
_atom_site_fract_y
_atom_site_fract_z
_atom_site_occupancy
_atom_site_U_iso_or_equiv
Pr1 Pr+3 0.5 0.5 0.5 1 0.0
O5 O-2 0.5 0 0.3813 1 0.0
O1 O-2 0 0.5 0 0.1 0.0
O2 O-2 0.5 0 0 1 0.0
O4 O-2 0 0.5 0.355 1 0.0
Cu2 Cu+2 0 0 0.3511 1 0.0
O3 O-2 0 0 0.1518 1 0.0
Pr2 Pr+3 0.5 0.5 0.1789 0.04 0.0
Ba1 Ba+2 0.5 0.5 0.1789 0.96 0.0
Cu1 Cu+2 0 0 0 1 0.0
