#------------------------------------------------------------------------------
#$Date: 2015-10-05 13:29:50 +0300 (Mon, 05 Oct 2015) $
#$Revision: 159951 $
#$URL: svn://www.crystallography.net/cod/cif/1/53/36/1533684.cif $
#------------------------------------------------------------------------------
#
# This file is available in the Crystallography Open Database (COD),
# http://www.crystallography.net/
#
# All data on this site have been placed in the public domain by the
# contributors.
#
data_1533684
loop_
_publ_author_name
'Sorli, S.'
'Llusar, M.'
'Tena, M.A.'
'Monros, G.'
'Calbo, J.'
'Badenes, J.A.'
_publ_section_title
;
 Structure and colour of Nix A1-3x B2x O2 (A = Ti, Sn; B = Sb, Nb) solid
 solutions
;
_journal_name_full               'Journal of the European Ceramic Society'
_journal_page_first              2425
_journal_page_last               2432
_journal_volume                  24
_journal_year                    2004
_chemical_formula_sum            'Nb0.2 Ni0.1 O2 Ti0.7'
_chemical_name_systematic        '(Ni0.1 Ti0.7 Nb0.2) O2'
_space_group_IT_number           136
_symmetry_space_group_name_Hall  '-P 4n 2n'
_symmetry_space_group_name_H-M   'P 42/m n m'
_cell_angle_alpha                90
_cell_angle_beta                 90
_cell_angle_gamma                90
_cell_formula_units_Z            2
_cell_length_a                   4.6327
_cell_length_b                   4.6327
_cell_length_c                   2.9828
_cell_volume                     64.017
_citation_journal_id_ASTM        JECSER
_cod_data_source_file            Sorli_JECSER_2004_1569.cif
_cod_data_source_block           Nb0.2Ni0.1O2Ti0.7
_cod_original_cell_volume        64.01658
_cod_database_code               1533684
loop_
_symmetry_equiv_pos_as_xyz
x,y,z
-y+1/2,x+1/2,z+1/2
-x,-y,z
y+1/2,-x+1/2,z+1/2
x+1/2,-y+1/2,-z+1/2
y,x,-z
-x+1/2,y+1/2,-z+1/2
-y,-x,-z
-x,-y,-z
y-1/2,-x-1/2,-z-1/2
x,y,-z
-y-1/2,x-1/2,-z-1/2
-x-1/2,y-1/2,z-1/2
-y,-x,z
x-1/2,-y-1/2,z-1/2
y,x,z
loop_
_atom_site_label
_atom_site_type_symbol
_atom_site_fract_x
_atom_site_fract_y
_atom_site_fract_z
_atom_site_occupancy
_atom_site_U_iso_or_equiv
Nb1 Nb+5 0 0 0 0.2 0.0
O1 O-2 0.3031 0.3031 0 1 0.0
Ni1 Ni+2 0 0 0 0.1 0.0
Ti1 Ti+4 0 0 0 0.7 0.0
