#------------------------------------------------------------------------------
#$Date: 2016-02-13 21:28:24 +0200 (Sat, 13 Feb 2016) $
#$Revision: 176429 $
#$URL: svn://www.crystallography.net/cod/cif/1/53/32/1533297.cif $
#------------------------------------------------------------------------------
#
# This file is available in the Crystallography Open Database (COD),
# http://www.crystallography.net/
#
# All data on this site have been placed in the public domain by the
# contributors.
#
data_1533297
loop_
_publ_author_name
'Caspi, E.N.'
'Avdeev, M.'
'Short, S.'
'Jorgensen, J.D.'
'Kolesnik, S.'
'Dabrowski, B.'
'Chmaissem, O.'
'Mais, J.'
_publ_section_title
;
 Synthesis, structure and properties of randomly mixed and layer-ordered
 Sr Mn1-x Gax O3-d perovskites
;
_journal_name_full               'Journal of Solid State Chemistry'
_journal_page_first              1456
_journal_page_last               1470
_journal_volume                  177
_journal_year                    2004
_chemical_formula_sum            'Ga0.24 Mn0.76 O2.5 Sr'
_chemical_name_systematic        'Sr ((Mn0.76 Ga0.24) O2.5)'
_space_group_IT_number           221
_symmetry_space_group_name_Hall  '-P 4 2 3'
_symmetry_space_group_name_H-M   'P m -3 m'
_cell_angle_alpha                90
_cell_angle_beta                 90
_cell_angle_gamma                90
_cell_formula_units_Z            1
_cell_length_a                   3.89045
_cell_length_b                   3.89045
_cell_length_c                   3.89045
_cell_volume                     58.884
_citation_journal_id_ASTM        JSSCBI
_cod_data_source_file            Caspi_JSSCBI_2004_1671.cif
_cod_data_source_block           Ga0.24Mn0.76O2.5Sr1
_cod_original_cell_volume        58.8843
_cod_original_formula_sum        'Ga0.24 Mn0.76 O2.5 Sr1'
_cod_database_code               1533297
loop_
_symmetry_equiv_pos_as_xyz
x,y,z
-y,x,z
-x,-y,z
y,-x,z
x,-y,-z
y,x,-z
-x,y,-z
-y,-x,-z
z,x,y
-x,z,y
-z,-x,y
x,-z,y
z,-x,-y
x,z,-y
-z,x,-y
-x,-z,-y
y,z,x
y,-z,-x
z,y,-x
-y,z,-x
-z,-y,-x
-y,-z,x
z,-y,x
-z,y,x
-x,-y,-z
y,-x,-z
x,y,-z
-y,x,-z
-x,y,z
-y,-x,z
x,-y,z
y,x,z
-z,-x,-y
x,-z,-y
z,x,-y
-x,z,-y
-z,x,y
-x,-z,y
z,-x,y
x,z,y
-y,-z,-x
-y,z,x
-z,-y,x
y,-z,x
z,y,x
y,z,-x
-z,y,-x
z,-y,-x
loop_
_atom_site_label
_atom_site_type_symbol
_atom_site_fract_x
_atom_site_fract_y
_atom_site_fract_z
_atom_site_occupancy
_atom_site_U_iso_or_equiv
O1 O-2 0.5 0 0 0.833 0.0
Sr1 Sr+2 0.5 0.5 0.5 1 0.0
Ga1 Ga+3 0 0 0 0.24 0.0
Mn1 Mn+3 0 0 0 0.76 0.0
