#------------------------------------------------------------------------------
#$Date: 2016-02-13 21:28:24 +0200 (Sat, 13 Feb 2016) $
#$Revision: 176429 $
#$URL: svn://www.crystallography.net/cod/cif/1/53/38/1533847.cif $
#------------------------------------------------------------------------------
#
# This file is available in the Crystallography Open Database (COD),
# http://www.crystallography.net/
#
# All data on this site have been placed in the public domain by the
# contributors.
#
data_1533847
loop_
_publ_author_name
'Bombik, A.'
'Lesniewska, B.'
'Pacyna, A.W.'
'Mayer, J.'
_publ_section_title
;
 Crystal structure of solid solutions RE Fe1-x (Al or Ga)x O3 (RE = Tb,
 Er, Tm) and the correlation between superexchange interaction Fe(+3) -
 O(-2) - Fe(+3) linkage angles and Neel temperature
;
_journal_name_full               'Journal of Magnetism and Magnetic Materials'
_journal_page_first              206
_journal_page_last               219
_journal_volume                  257
_journal_year                    2003
_chemical_formula_sum            'Fe O3 Tb'
_chemical_name_systematic        'Tb (Fe O3)'
_space_group_IT_number           62
_symmetry_space_group_name_Hall  '-P 2c 2ab'
_symmetry_space_group_name_H-M   'P b n m'
_cell_angle_alpha                90
_cell_angle_beta                 90
_cell_angle_gamma                90
_cell_formula_units_Z            4
_cell_length_a                   5.32684
_cell_length_b                   5.59791
_cell_length_c                   7.64067
_cell_volume                     227.838
_citation_journal_id_ASTM        JMMMDC
_cod_data_source_file            Bombik_JMMMDC_2003_792.cif
_cod_data_source_block           Fe1O3Tb1
_cod_original_cell_volume        227.8384
_cod_original_sg_symbol_Hall     '-P 2ac 2n (z,x,y)'
_cod_original_formula_sum        'Fe1 O3 Tb1'
_cod_database_code               1533847
loop_
_symmetry_equiv_pos_as_xyz
x,y,z
x+1/2,-y+1/2,-z
-x+1/2,y+1/2,-z+1/2
-x,-y,z+1/2
-x,-y,-z
-x-1/2,y-1/2,z
x-1/2,-y-1/2,z-1/2
x,y,-z-1/2
loop_
_atom_site_label
_atom_site_type_symbol
_atom_site_fract_x
_atom_site_fract_y
_atom_site_fract_z
_atom_site_occupancy
_atom_site_U_iso_or_equiv
Fe1 Fe+3 0.5 0 0 1 0.0
O2 O-2 0.297 0.2822 0.0493 1 0.0
Tb1 Tb+3 -0.01796 0.06336 0.25 1 0.0
O1 O-2 0.0999 0.4503 0.25 1 0.0
