#------------------------------------------------------------------------------
#$Date: 2016-02-13 21:28:24 +0200 (Sat, 13 Feb 2016) $
#$Revision: 176429 $
#$URL: svn://www.crystallography.net/cod/cif/1/53/36/1533606.cif $
#------------------------------------------------------------------------------
#
# This file is available in the Crystallography Open Database (COD),
# http://www.crystallography.net/
#
# All data on this site have been placed in the public domain by the
# contributors.
#
data_1533606
loop_
_publ_author_name
'Ting, V.'
'Liu, Y.'
'Withers, R.L.'
'Krausz, E.'
_publ_section_title
;
 An electron diffraction and bond valence sum study of the space group
 symmetries and structures of the photocatalytic 1:1 ordered A2 In Nb O6
 double perovskites (A = Ca(2+), Sr(2+), Ba(2+))
;
_journal_name_full               'Journal of Solid State Chemistry'
_journal_page_first              979
_journal_page_last               986
_journal_volume                  177
_journal_year                    2004
_chemical_formula_sum            'In Nb O6 Sr2'
_chemical_name_systematic        'Sr2 (In Nb O6)'
_space_group_IT_number           14
_symmetry_space_group_name_Hall  '-P 2yn'
_symmetry_space_group_name_H-M   'P 1 21/n 1'
_cell_angle_alpha                90
_cell_angle_beta                 90
_cell_angle_gamma                90
_cell_formula_units_Z            2
_cell_length_a                   5.7375
_cell_length_b                   5.7375
_cell_length_c                   8.114
_cell_volume                     267.104
_citation_journal_id_ASTM        JSSCBI
_cod_data_source_file            Ting_JSSCBI_2004_1882.cif
_cod_data_source_block           In1Nb1O6Sr2
_cod_original_sg_symbol_Hall     '-P 2ybc (x-z,y,z)'
_cod_original_formula_sum        'In1 Nb1 O6 Sr2'
_cod_database_code               1533606
loop_
_symmetry_equiv_pos_as_xyz
x,y,z
-x+1/2,y+1/2,-z+1/2
-x,-y,-z
x-1/2,-y-1/2,z-1/2
loop_
_atom_site_label
_atom_site_type_symbol
_atom_site_fract_x
_atom_site_fract_y
_atom_site_fract_z
_atom_site_occupancy
_atom_site_U_iso_or_equiv
In1 In+3 0 0 0 1 0.0
Nb1 Nb+5 0 0 0.5 1 0.0
O2 O-2 0.2261 0.2964 0.9648 1 0.0
O3 O-2 0.0704 0 0.2613 1 0.0
O1 O-2 0.2965 0.7739 0.9648 1 0.0
Sr1 Sr+2 0.5 0 0.25 1 0.0
