#------------------------------------------------------------------------------
#$Date: 2016-02-13 21:28:24 +0200 (Sat, 13 Feb 2016) $
#$Revision: 176429 $
#$URL: svn://www.crystallography.net/cod/cif/1/53/36/1533656.cif $
#------------------------------------------------------------------------------
#
# This file is available in the Crystallography Open Database (COD),
# http://www.crystallography.net/
#
# All data on this site have been placed in the public domain by the
# contributors.
#
data_1533656
loop_
_publ_author_name
'Song, G.B.'
'Liang, J.K.'
'Yang, L.T.'
'Rao, G.H.'
'Liu, G.Y.'
'Liu, Q.L.'
'Yang, H.F.'
_publ_section_title
;
 Subsolidus phase relation and crystal structure of the Pr Ba2-x Srx Cu3
 O7+d system
;
_journal_name_full               'Journal of Alloys Compd.'
_journal_page_first              302
_journal_page_last               306
_journal_volume                  370
_journal_year                    2004
_chemical_formula_sum            'Ba1.8 Cu3 O6.77 Pr Sr0.2'
_chemical_name_systematic        'Pr (Ba1.8 Sr0.2) (Cu3 O6.77)'
_space_group_IT_number           47
_symmetry_space_group_name_Hall  '-P 2 2'
_symmetry_space_group_name_H-M   'P m m m'
_cell_angle_alpha                90
_cell_angle_beta                 90
_cell_angle_gamma                90
_cell_formula_units_Z            1
_cell_length_a                   3.9069
_cell_length_b                   3.8834
_cell_length_c                   11.7274
_cell_volume                     177.929
_citation_journal_id_ASTM        JALCEU
_cod_data_source_file            Song_JALCEU_2004_1463.cif
_cod_data_source_block           Ba1.8Cu3O6.77Pr1Sr0.2
_cod_original_cell_volume        177.9288
_cod_original_formula_sum        'Ba1.8 Cu3 O6.77 Pr1 Sr0.2'
_cod_database_code               1533656
loop_
_symmetry_equiv_pos_as_xyz
x,y,z
-x,-y,z
x,-y,-z
-x,y,-z
-x,-y,-z
x,y,-z
-x,y,z
x,-y,z
loop_
_atom_site_label
_atom_site_type_symbol
_atom_site_fract_x
_atom_site_fract_y
_atom_site_fract_z
_atom_site_occupancy
_atom_site_U_iso_or_equiv
O2 O-2 0 0.5 0 0.59 0.0
Pr1 Pr+3 0.5 0.5 0.5 1 0.0
Ba1 Ba+2 0.5 0.5 0.1789 0.9 0.0
Cu2 Cu+2 0 0 0.3511 1 0.0
Sr1 Sr+2 0.5 0.5 0.1789 0.1 0.0
Cu1 Cu+2 0 0 0 1 0.0
O4 O-2 0.5 0 0.355 1 0.0
O1 O-2 0.5 0 0 0.18 0.0
O3 O-2 0 0 0.1531 1 0.0
O5 O-2 0 0.5 0.3813 1 0.0
