#------------------------------------------------------------------------------
#$Date: 2016-02-13 21:28:24 +0200 (Sat, 13 Feb 2016) $
#$Revision: 176429 $
#$URL: svn://www.crystallography.net/cod/cif/1/53/32/1533251.cif $
#------------------------------------------------------------------------------
#
# This file is available in the Crystallography Open Database (COD),
# http://www.crystallography.net/
#
# All data on this site have been placed in the public domain by the
# contributors.
#
data_1533251
loop_
_publ_author_name
'Yang, L.T.'
'Liang, J.K.'
'Luo, J.'
'Jin, C.Q.'
'Liu, Q.L.'
'Rao, G.H.'
'Feng, X.M.'
'Liu, F.S.'
'Song, G.B.'
_publ_section_title
;
 A systematic study on the crystal structure and properties of Ru Sr2 R
 Cu2 O8-d (R = Gd, Tb, Dy, Y, Ho, Er)
;
_journal_name_full               'Journal of Solid State Chemistry'
_journal_page_first              1072
_journal_page_last               1077
_journal_volume                  177
_journal_year                    2004
_chemical_formula_sum            'Cu2 O7.72 Ru Sr2 Tb'
_chemical_name_systematic        'Ru Sr2 Tb (Cu2 O7.72)'
_space_group_IT_number           123
_symmetry_space_group_name_Hall  '-P 4 2'
_symmetry_space_group_name_H-M   'P 4/m m m'
_cell_angle_alpha                90
_cell_angle_beta                 90
_cell_angle_gamma                90
_cell_formula_units_Z            1
_cell_length_a                   3.8368
_cell_length_b                   3.8368
_cell_length_c                   11.5545
_cell_volume                     170.094
_citation_journal_id_ASTM        JSSCBI
_cod_data_source_file            Yang_JSSCBI_2004_1627.cif
_cod_data_source_block           Cu2O7.72Ru1Sr2Tb1
_cod_original_cell_volume        170.0942
_cod_original_formula_sum        'Cu2 O7.72 Ru1 Sr2 Tb1'
_cod_database_code               1533251
loop_
_symmetry_equiv_pos_as_xyz
x,y,z
-y,x,z
-x,-y,z
y,-x,z
x,-y,-z
y,x,-z
-x,y,-z
-y,-x,-z
-x,-y,-z
y,-x,-z
x,y,-z
-y,x,-z
-x,y,z
-y,-x,z
x,-y,z
y,x,z
loop_
_atom_site_label
_atom_site_type_symbol
_atom_site_fract_x
_atom_site_fract_y
_atom_site_fract_z
_atom_site_occupancy
_atom_site_U_iso_or_equiv
O2 O-2 0 0.5 0.1245 1 0.0
Sr1 Sr+2 0.5 0.5 0.3076 1 0.0
O1 O-2 0.0395 0 0.3332 0.25 0.0
Ru1 Ru+5 0 0 0.5 1 0.0
O3 O-2 0.1485 0.5 0.5 0.43 0.0
Cu1 Cu+1 0 0 0.1453 1 0.0
Tb1 Tb+3 0.5 0.5 0 1 0.0
