#------------------------------------------------------------------------------
#$Date: 2016-02-13 21:28:24 +0200 (Sat, 13 Feb 2016) $
#$Revision: 176429 $
#$URL: svn://www.crystallography.net/cod/cif/1/53/38/1533803.cif $
#------------------------------------------------------------------------------
#
# This file is available in the Crystallography Open Database (COD),
# http://www.crystallography.net/
#
# All data on this site have been placed in the public domain by the
# contributors.
#
data_1533803
loop_
_publ_author_name
'Suard, E.'
'Keller, L.'
'Fauth, F.'
'Maignan, A.'
'Millange, F.'
'Martin, C.'
_publ_section_title
;
 Role of the A-site cations on the magnetic structures and transport
 properties in the Nd0.7 Ba0.3-y Sry Mn O3 (0 <= y <= 0.2) perovskite
;
_journal_name_full               'Journal of Magnetism and Magnetic Materials'
_journal_page_first              221
_journal_page_last               233
_journal_volume                  264
_journal_year                    2003
_chemical_formula_sum            'Ba0.2 Mn Nd0.7 O3 Sr0.1'
_chemical_name_systematic        '(Nd0.7 Ba0.2 Sr0.1) (Mn O3)'
_space_group_IT_number           62
_symmetry_space_group_name_Hall  '-P 2ac 2n'
_symmetry_space_group_name_H-M   'P n m a'
_cell_angle_alpha                90
_cell_angle_beta                 90
_cell_angle_gamma                90
_cell_formula_units_Z            4
_cell_length_a                   5.4792
_cell_length_b                   7.748
_cell_length_c                   5.4961
_cell_volume                     233.325
_citation_journal_id_ASTM        JMMMDC
_cod_data_source_file            Suard_JMMMDC_2003_841.cif
_cod_data_source_block           Ba0.2Mn1Nd0.7O3Sr0.1
_cod_original_cell_volume        233.3251
_cod_original_formula_sum        'Ba0.2 Mn1 Nd0.7 O3 Sr0.1'
_cod_database_code               1533803
loop_
_symmetry_equiv_pos_as_xyz
x,y,z
-x+1/2,-y,z+1/2
x+1/2,-y+1/2,-z+1/2
-x,y+1/2,-z
-x,-y,-z
x-1/2,y,-z-1/2
-x-1/2,y-1/2,z-1/2
x,-y-1/2,z
loop_
_atom_site_label
_atom_site_type_symbol
_atom_site_fract_x
_atom_site_fract_y
_atom_site_fract_z
_atom_site_occupancy
_atom_site_U_iso_or_equiv
Nd1 Nd+3 0.0155 0.25 -0.0021 0.7 0.0
Sr1 Sr+2 0.0155 0.25 -0.0021 0.1 0.0
O1 O-2 0.4963 0.25 0.0619 1 0.0
Ba1 Ba+2 0.0155 0.25 -0.0021 0.2 0.0
Mn1 Mn+3 0 0 0.5 1 0.0
O2 O-2 0.2656 0.0291 0.7312 1 0.0
