#------------------------------------------------------------------------------
#$Date: 2016-02-13 21:28:24 +0200 (Sat, 13 Feb 2016) $
#$Revision: 176429 $
#$URL: svn://www.crystallography.net/cod/cif/1/53/42/1534241.cif $
#------------------------------------------------------------------------------
#
# This file is available in the Crystallography Open Database (COD),
# http://www.crystallography.net/
#
# All data on this site have been placed in the public domain by the
# contributors.
#
data_1534241
loop_
_publ_author_name
'Bawson, J.K.'
'Wait, Z.'
'Chilton, D.R.'
'Alcock, K.'
_publ_section_title
;
 Some aspects of the system uranium trioxide-water.
;
_journal_name_full               'Journal of the Chemical Society'
_journal_page_first              3531
_journal_page_last               3540
_journal_volume                  1956
_journal_year                    1956
_chemical_formula_sum            'O3 U'
_chemical_name_systematic        'U O3'
_space_group_IT_number           221
_symmetry_space_group_name_Hall  '-P 4 2 3'
_symmetry_space_group_name_H-M   'P m -3 m'
_cell_angle_alpha                90
_cell_angle_beta                 90
_cell_angle_gamma                90
_cell_formula_units_Z            1
_cell_length_a                   4.146
_cell_length_b                   4.146
_cell_length_c                   4.146
_cell_volume                     71.267
_citation_journal_id_ASTM        JCSOA9
_cod_data_source_file            Bawson_JCSOA9_1956_1500.cif
_cod_data_source_block           O3U1
_cod_original_cell_volume        71.2669
_cod_original_formula_sum        'O3 U1'
_cod_database_code               1534241
loop_
_symmetry_equiv_pos_as_xyz
x,y,z
-y,x,z
-x,-y,z
y,-x,z
x,-y,-z
y,x,-z
-x,y,-z
-y,-x,-z
z,x,y
-x,z,y
-z,-x,y
x,-z,y
z,-x,-y
x,z,-y
-z,x,-y
-x,-z,-y
y,z,x
y,-z,-x
z,y,-x
-y,z,-x
-z,-y,-x
-y,-z,x
z,-y,x
-z,y,x
-x,-y,-z
y,-x,-z
x,y,-z
-y,x,-z
-x,y,z
-y,-x,z
x,-y,z
y,x,z
-z,-x,-y
x,-z,-y
z,x,-y
-x,z,-y
-z,x,y
-x,-z,y
z,-x,y
x,z,y
-y,-z,-x
-y,z,x
-z,-y,x
y,-z,x
z,y,x
y,z,-x
-z,y,-x
z,-y,-x
loop_
_atom_site_label
_atom_site_type_symbol
_atom_site_fract_x
_atom_site_fract_y
_atom_site_fract_z
_atom_site_occupancy
_atom_site_U_iso_or_equiv
U1 U+6 0 0 0 1 0.0
O1 O-2 0.5 0 0 1 0.0
