#------------------------------------------------------------------------------
#$Date: 2015-10-09 13:19:29 +0300 (Fri, 09 Oct 2015) $
#$Revision: 161610 $
#$URL: svn://www.crystallography.net/cod/cif/1/53/46/1534677.cif $
#------------------------------------------------------------------------------
#
# This file is available in the Crystallography Open Database (COD),
# http://www.crystallography.net/
#
# All data on this site have been placed in the public domain by the
# contributors.
#
data_1534677
loop_
_publ_author_name
'Schoellner, R.'
'Gellens, L.R.'
'Uytterhoeven, J.B.'
'Mortier, W.J.'
_publ_section_title
;
 Cation location in the zeolites Mg Ag Na - A, Ca Ag Na - A, Ba Ag Na - A,
 Zn Ag Na - A and Ag Na - A at 293 and 653 K
;
_journal_name_full               Zeolites
_journal_page_first              149
_journal_page_last               154
_journal_volume                  3
_journal_year                    1983
_chemical_formula_sum            'Ag2.97 Al12 Na7.66 O48 Si12'
_chemical_name_systematic        'Ag2.97 Na7.66 Al12 Si12 O48'
_space_group_IT_number           221
_symmetry_space_group_name_Hall  '-P 4 2 3'
_symmetry_space_group_name_H-M   'P m -3 m'
_cell_angle_alpha                90
_cell_angle_beta                 90
_cell_angle_gamma                90
_cell_formula_units_Z            1
_cell_length_a                   12.234
_cell_length_b                   12.234
_cell_length_c                   12.234
_cell_volume                     1831.072
_citation_journal_id_ASTM        ZEOLD3
_cod_data_source_file            Schoellner_ZEOLD3_1983_321.cif
_cod_data_source_block           Ag2.97Al12Na7.66O48Si12
_cod_database_code               1534677
loop_
_symmetry_equiv_pos_as_xyz
x,y,z
-y,x,z
-x,-y,z
y,-x,z
x,-y,-z
y,x,-z
-x,y,-z
-y,-x,-z
z,x,y
-x,z,y
-z,-x,y
x,-z,y
z,-x,-y
x,z,-y
-z,x,-y
-x,-z,-y
y,z,x
y,-z,-x
z,y,-x
-y,z,-x
-z,-y,-x
-y,-z,x
z,-y,x
-z,y,x
-x,-y,-z
y,-x,-z
x,y,-z
-y,x,-z
-x,y,z
-y,-x,z
x,-y,z
y,x,z
-z,-x,-y
x,-z,-y
z,x,-y
-x,z,-y
-z,x,y
-x,-z,y
z,-x,y
x,z,y
-y,-z,-x
-y,z,x
-z,-y,x
y,-z,x
z,y,x
y,z,-x
-z,y,-x
z,-y,-x
loop_
_atom_site_label
_atom_site_type_symbol
_atom_site_fract_x
_atom_site_fract_y
_atom_site_fract_z
_atom_site_occupancy
_atom_site_U_iso_or_equiv
O1 O-2 0.2169 0.5 0 1 0.0
O3 O-2 0.1112 0.1112 0.3364 1 0.0
Al1 Al+3 0.1834 0.3712 0 0.5 0.0
O2 O-2 0.2938 0.2938 0 1 0.0
Si1 Si+4 0.1834 0.3712 0 0.5 0.0
Ag1 Ag+1 0.1863 0.1863 0.1863 0.371 0.0
Na2 Na+1 0.4346 0.4346 0 0.174 0.0
Na1 Na+1 0.2202 0.2202 0.2202 0.697 0.0
