#------------------------------------------------------------------------------
#$Date: 2016-01-28 03:16:50 +0200 (Thu, 28 Jan 2016) $
#$Revision: 175177 $
#$URL: svn://www.crystallography.net/cod/cif/1/53/44/1534460.cif $
#------------------------------------------------------------------------------
#
# This file is available in the Crystallography Open Database (COD),
# http://www.crystallography.net/
#
# All data on this site have been placed in the public domain by the
# contributors.
#
data_1534460
loop_
_publ_author_name
'Saiki, A.'
'Ishizawa, N.'
'Mizutani, N.'
'Kato, M.'
_publ_section_title
;
 Structural change of C-rare Earth sesquioxides Yb~2~O~3~ and Er~2~O~3~ as a
 function of temperature
;
_journal_issue                   1082
_journal_name_full               'Journal of the Ceramic Association, Japan'
_journal_page_first              649
_journal_page_last               654
_journal_paper_doi               10.2109/jcersj1950.93.1082_649
_journal_volume                  93
_journal_year                    1985
_chemical_formula_sum            'O3 Yb2'
_chemical_name_systematic        'Yb2 O3'
_space_group_IT_number           206
_symmetry_space_group_name_Hall  '-I 2b 2c 3'
_symmetry_space_group_name_H-M   'I a -3'
_cell_angle_alpha                90
_cell_angle_beta                 90
_cell_angle_gamma                90
_cell_formula_units_Z            16
_cell_length_a                   10.4579
_cell_length_b                   10.4579
_cell_length_c                   10.4579
_cell_volume                     1143.756
_citation_journal_id_ASTM        YGKSA4
_cod_data_source_file            Saiki_YGKSA4_1985_944.cif
_cod_data_source_block           O3Yb2
_cod_database_code               1534460
loop_
_symmetry_equiv_pos_as_xyz
x,y,z
-x,-y+1/2,z
x,-y,-z+1/2
-x,y+1/2,-z+1/2
z,x,y
-z,-x+1/2,y
z,-x,-y+1/2
-z,x+1/2,-y+1/2
y,z,x
y,-z,-x+1/2
-y,z+1/2,-x+1/2
-y+1/2,-z,x+1/2
-x,-y,-z
x,y-1/2,-z
-x,y,z-1/2
x,-y-1/2,z-1/2
-z,-x,-y
z,x-1/2,-y
-z,x,y-1/2
z,-x-1/2,y-1/2
-y,-z,-x
-y,z,x-1/2
y,-z-1/2,x-1/2
y-1/2,z,-x-1/2
x+1/2,y+1/2,z+1/2
-x+1/2,-y+1,z+1/2
x+1/2,-y+1/2,-z+1
-x+1/2,y+1,-z+1
z+1/2,x+1/2,y+1/2
-z+1/2,-x+1,y+1/2
z+1/2,-x+1/2,-y+1
-z+1/2,x+1,-y+1
y+1/2,z+1/2,x+1/2
y+1/2,-z+1/2,-x+1
-y+1/2,z+1,-x+1
-y+1,-z+1/2,x+1
-x+1/2,-y+1/2,-z+1/2
x+1/2,y,-z+1/2
-x+1/2,y+1/2,z
x+1/2,-y,z
-z+1/2,-x+1/2,-y+1/2
z+1/2,x,-y+1/2
-z+1/2,x+1/2,y
z+1/2,-x,y
-y+1/2,-z+1/2,-x+1/2
-y+1/2,z+1/2,x
y+1/2,-z,x
y,z+1/2,-x
loop_
_atom_site_label
_atom_site_type_symbol
_atom_site_fract_x
_atom_site_fract_y
_atom_site_fract_z
_atom_site_occupancy
_atom_site_U_iso_or_equiv
O1 O-2 0.3919 0.1529 0.3811 1 0.0
Yb2 Yb+3 -0.03248 0 0.25 1 0.0
Yb1 Yb+3 0.25 0.25 0.25 1 0.0
