#------------------------------------------------------------------------------
#$Date: 2015-10-08 11:57:58 +0300 (Thu, 08 Oct 2015) $
#$Revision: 161017 $
#$URL: svn://www.crystallography.net/cod/cif/1/53/43/1534360.cif $
#------------------------------------------------------------------------------
#
# This file is available in the Crystallography Open Database (COD),
# http://www.crystallography.net/
#
# All data on this site have been placed in the public domain by the
# contributors.
#
data_1534360
loop_
_publ_author_name
'Chernaya, T.S.'
'Volk, T.R.'
'Blomberg, M.K.'
'Maksimov, B.A.'
'Ivleva, L.I.'
'Verin, I.A.'
'Simonov, V.I.'
_publ_section_title
;
 X-ray diffraction study of cerium- and thulium-doped (Sr, Ba) Nb2 O6
 single crystals
;
_journal_name_full               Kristallografiya
_journal_page_first              1000
_journal_page_last               1005
_journal_volume                  48
_journal_year                    2003
_chemical_formula_sum            'Ba0.39 Nb2 O6 Sr0.6 Tm0.01'
_chemical_name_systematic        '(Sr0.6 Ba0.39 Tm0.01) (Nb2 O6)'
_space_group_IT_number           100
_symmetry_space_group_name_Hall  'P 4 -2ab'
_symmetry_space_group_name_H-M   'P 4 b m'
_cell_angle_alpha                90
_cell_angle_beta                 90
_cell_angle_gamma                90
_cell_formula_units_Z            5
_cell_length_a                   12.458
_cell_length_b                   12.458
_cell_length_c                   3.935
_cell_volume                     610.719
_citation_journal_id_ASTM        KRISAJ
_cod_data_source_file            Chernaya_KRISAJ_2003_483.cif
_cod_data_source_block           Ba0.39Nb2O6Sr0.6Tm0.01
_cod_original_cell_volume        610.7189
_cod_database_code               1534360
loop_
_symmetry_equiv_pos_as_xyz
x,y,z
-y,x,z
-x,-y,z
y,-x,z
-x+1/2,y+1/2,z
-y+1/2,-x+1/2,z
x+1/2,-y+1/2,z
y+1/2,x+1/2,z
loop_
_atom_site_label
_atom_site_type_symbol
_atom_site_fract_x
_atom_site_fract_y
_atom_site_fract_z
_atom_site_occupancy
_atom_site_U_iso_or_equiv
Sr1 Sr+2 0 0 0.4879 0.69 0.0
O1 O-2 0.3434 0.0064 -0.0472 1 0.0
Nb1 Nb+5 0 0.5 0 1 0.0
Sr2 Sr+2 0.1532 0.6844 0.4974 0.201 0.0
O2 O-2 0.1387 0.0685 -0.0473 1 0.0
O6 O-2 0.2845 0.4438 0.471 0.5 0.0
O5 O-2 0.307 0.4048 0.4777 0.5 0.0
Tm1 Tm+3 0 0 0.4879 0.035 0.0
Ba1 Ba+2 0.1733 0.6733 0.4898 0.485 0.0
Nb2 Nb+5 0.0746 0.2114 -0.0051 1 0.0
O4 O-2 0.0124 0.5124 0.474 0.5 0.0
O3 O-2 0.2814 0.7814 -0.0173 1 0.0
