#------------------------------------------------------------------------------
#$Date: 2016-02-13 21:28:24 +0200 (Sat, 13 Feb 2016) $
#$Revision: 176429 $
#$URL: svn://www.crystallography.net/cod/cif/1/53/44/1534462.cif $
#------------------------------------------------------------------------------
#
# This file is available in the Crystallography Open Database (COD),
# http://www.crystallography.net/
#
# All data on this site have been placed in the public domain by the
# contributors.
#
data_1534462
loop_
_publ_author_name
'Gemmill, W.R.'
'Smith, M.D.'
'zur Loye, H.C.'
_publ_section_title
;
 Synthesis and magnetic properties of the double perovskites Ln2 Na Ru O6
 (Ln = La, Pr, Nd)
;
_journal_name_full               'Journal of Solid State Chemistry'
_journal_page_first              3560
_journal_page_last               3567
_journal_volume                  177
_journal_year                    2004
_chemical_formula_sum            'Na Nd2 O6 Ru'
_chemical_name_systematic        'Nd2 Na Ru O6'
_space_group_IT_number           14
_symmetry_space_group_name_Hall  '-P 2yn'
_symmetry_space_group_name_H-M   'P 1 21/n 1'
_cell_angle_alpha                90
_cell_angle_beta                 90.883
_cell_angle_gamma                90
_cell_formula_units_Z            2
_cell_length_a                   5.4944
_cell_length_b                   5.9009
_cell_length_c                   7.8917
_cell_volume                     255.834
_citation_journal_id_ASTM        JSSCBI
_cod_data_source_file            Gemmill_JSSCBI_2004_1524.cif
_cod_data_source_block           Na1Nd2O6Ru1
_cod_original_cell_volume        255.8336
_cod_original_sg_symbol_Hall     '-P 2ybc (x-z,y,z)'
_cod_original_formula_sum        'Na1 Nd2 O6 Ru1'
_cod_database_code               1534462
loop_
_symmetry_equiv_pos_as_xyz
x,y,z
-x+1/2,y+1/2,-z+1/2
-x,-y,-z
x-1/2,-y-1/2,z-1/2
loop_
_atom_site_label
_atom_site_type_symbol
_atom_site_fract_x
_atom_site_fract_y
_atom_site_fract_z
_atom_site_occupancy
_atom_site_U_iso_or_equiv
O3 O-2 0.3359 0.7808 0.0666 1 0.0
Na1 Na+1 0 0 0 1 0.0
Nd1 Nd+3 0.48107 0.07099 0.25285 1 0.0
O2 O-2 0.6161 0.4512 0.2309 1 0.0
Ru1 Ru+5 0.5 0.5 0 1 0.0
O1 O-2 0.2076 0.3272 0.0506 1 0.0
