#------------------------------------------------------------------------------
#$Date: 2015-10-08 12:28:50 +0300 (Thu, 08 Oct 2015) $
#$Revision: 161090 $
#$URL: svn://www.crystallography.net/cod/cif/1/53/43/1534387.cif $
#------------------------------------------------------------------------------
#
# This file is available in the Crystallography Open Database (COD),
# http://www.crystallography.net/
#
# All data on this site have been placed in the public domain by the
# contributors.
#
data_1534387
loop_
_publ_author_name
'Darriet, J.'
'Galy, J.'
'Hagenmuller, P.'
_publ_section_title
;
 Les bronzes oxygenes mixtes Mx V2-y Ty O5 (T = Mo, W)
;
_journal_name_full               'Journal of Solid State Chemistry'
_journal_page_first              604
_journal_page_last               613
_journal_volume                  3
_journal_year                    1971
_chemical_formula_sum            'Mo0.22 Na0.22 O5 V1.78'
_chemical_name_systematic        'Na0.22 V1.78 Mo0.22 O5'
_space_group_IT_number           12
_symmetry_space_group_name_Hall  '-C 2y'
_symmetry_space_group_name_H-M   'C 1 2/m 1'
_cell_angle_alpha                90
_cell_angle_beta                 109.1
_cell_angle_gamma                90
_cell_formula_units_Z            6
_cell_length_a                   15.45
_cell_length_b                   3.63
_cell_length_c                   10.13
_cell_volume                     536.850
_citation_journal_id_ASTM        JSSCBI
_cod_data_source_file            Darriet_JSSCBI_1971_338.cif
_cod_data_source_block           Mo0.22Na0.22O5V1.78
_cod_original_cell_volume        536.8499
_cod_database_code               1534387
loop_
_symmetry_equiv_pos_as_xyz
x,y,z
-x,y,-z
-x,-y,-z
x,-y,z
x+1/2,y+1/2,z
-x+1/2,y+1/2,-z
-x+1/2,-y+1/2,-z
x+1/2,-y+1/2,z
loop_
_atom_site_label
_atom_site_type_symbol
_atom_site_fract_x
_atom_site_fract_y
_atom_site_fract_z
_atom_site_occupancy
_atom_site_U_iso_or_equiv
Mo1 Mo+4 0.1217 0 0.123 0.33 0.0
O7 O-2 0.241 0 0.57 1 0.0
O4 O-2 0.431 0 0.208 1 0.0
O6 O-2 0.112 0 0.281 1 0.0
O1 O-2 0 0 0 1 0.0
V3 V+4 0.292 0 0.4197 1 0.0
V1 V+4 0.336 0 0.1101 1 0.0
O8 O-2 0.396 0 0.465 1 0.0
V2 V+4 0.1217 0 0.123 0.67 0.0
O5 O-2 0.26 0 0.255 1 0.0
O3 O-2 0.622 0 0.053 1 0.0
Na1 Na+1 0.01 0 0.4 0.33 0.0
O2 O-2 0.192 0 -0.027 1 0.0
