#------------------------------------------------------------------------------
#$Date: 2018-06-09 19:39:53 +0300 (Sat, 09 Jun 2018) $
#$Revision: 208239 $
#$URL: file:///home/coder/svn-repositories/cod/cif/1/53/47/1534748.cif $
#------------------------------------------------------------------------------
#
# This file is available in the Crystallography Open Database (COD),
# http://www.crystallography.net/
#
# All data on this site have been placed in the public domain by the
# contributors.
#
data_1534748
loop_
_publ_author_name
'Schwer, H.'
'Rossel, C.'
'Karpinski, J.'
'Kaldis, E.'
_publ_section_title
;
 The effect of Ca doping on the structures of YBa2Cu4O8 and Y2Ba4Cu7O14+x
 single crystals
;
_journal_name_full               'Journal of Solid State Chemistry'
_journal_page_first              96
_journal_page_last               103
_journal_volume                  111
_journal_year                    1994
_chemical_formula_sum            'Ba3.87 Ca0.246 Cu6.73 O14.63 Y1.884'
_chemical_name_systematic
;
(Y0.942 Ca0.058)2 (Ba0.935 Ca0.065)2 Ba2 Cu6.73 O14.63
;
_space_group_crystal_system      orthorhombic
_space_group_IT_number           65
_space_group_name_Hall           '-A 2 2'
_space_group_name_H-M_alt        'A m m m'
_cell_angle_alpha                90
_cell_angle_beta                 90
_cell_angle_gamma                90
_cell_formula_units_Z            2
_cell_length_a                   3.8501
_cell_length_b                   3.8626
_cell_length_c                   50.181
_cell_volume                     746.262
_citation_journal_id_ASTM        JSSCBI
_cod_data_source_file            Schwer_JSSCBI_1994_1569.cif
_cod_data_source_block           Ba3.87Ca0.246Cu6.73O14.63Y1.884
_cod_depositor_comments
;
 Updating space group information.

 Antanas Vaitkus,
 2018-06-10
;
_cod_original_cell_volume        746.2615
_cod_original_sg_symbol_Hall     '-C 2 2 (z,x,y)'
_cod_database_code               1534748
loop_
_space_group_symop_id
_space_group_symop_operation_xyz
1 x,y,z
2 x,-y,-z
3 -x,y,-z
4 -x,-y,z
5 -x,-y,-z
6 -x,y,z
7 x,-y,z
8 x,y,-z
9 x,y+1/2,z+1/2
10 x,-y+1/2,-z+1/2
11 -x,y+1/2,-z+1/2
12 -x,-y+1/2,z+1/2
13 -x,-y+1/2,-z+1/2
14 -x,y+1/2,z+1/2
15 x,-y+1/2,z+1/2
16 x,y+1/2,-z+1/2
loop_
_atom_site_label
_atom_site_type_symbol
_atom_site_fract_x
_atom_site_fract_y
_atom_site_fract_z
_atom_site_occupancy
_atom_site_U_iso_or_equiv
Ba2 Ba+2 0.5 0.5 0.18768 1 0.0
O9 O-2 0.5 0 0 0.34 0.0
O5 O-2 0 0.5 0.14293 1 0.0
Cu2 Cu+2 0 0 0.08223 1 0.0
O6 O-2 0 0 0.19331 1 0.0
O8 O-2 0 0.5 0 0.33 0.0
O3 O-2 0 0.5 0.08597 1 0.0
Ba1 Ba+2 0.5 0.5 0.04262 0.935 0.0
Cu3 Cu+2 0 0 0.14805 1 0.0
Y1 Y+3 0.5 0.5 0.11503 0.942 0.0
O2 O-2 0.5 0 0.08605 1 0.0
Cu4 Cu+2 0 0 0.22994 1 0.0
O7 O-2 0 0.5 0.23268 1 0.0
Cu1 Cu+2 0 0 0 0.73 0.0
Ca2 Ca+2 0.5 0.5 0.11503 0.058 0.0
O4 O-2 0.5 0 0.1433 1 0.0
Ca1 Ca+2 0.5 0.5 0.04262 0.065 0.0
O1 O-2 0 0 0.03558 0.98 0.0
