#------------------------------------------------------------------------------
#$Date: 2016-02-13 14:50:18 +0200 (Sat, 13 Feb 2016) $
#$Revision: 176428 $
#$URL: svn://www.crystallography.net/cod/cif/1/53/41/1534194.cif $
#------------------------------------------------------------------------------
#
# This file is available in the Crystallography Open Database (COD),
# http://www.crystallography.net/
#
# All data on this site have been placed in the public domain by the
# contributors.
#
data_1534194
loop_
_publ_author_name
'Bachmann, H.G.'
_publ_section_title
;
 Beitraege zur Kristallchemie natuerlicher und kuenstlicher
 Schwermetallvanadate. III. Das Bleiorthovanadat, seine Darstellung,
 Kristallstruktur und Isotypiebeziehungen
;
_journal_name_full
;
Neues Jahrbuch fuer Mineralogie. Monatshefte (Band=Jahr) (1950-)
;
_journal_page_first              209
_journal_page_last               223
_journal_volume                  1953
_journal_year                    1953
_chemical_formula_sum            'O8 Pb3 V2'
_chemical_name_systematic        'Pb3 (V O4)2'
_space_group_IT_number           166
_symmetry_space_group_name_Hall  '-P 3* 2'
_symmetry_space_group_name_H-M   'R -3 m :R'
_cell_angle_alpha                46.03
_cell_angle_beta                 46.03
_cell_angle_gamma                46.03
_cell_formula_units_Z            1
_cell_length_a                   7.65
_cell_length_b                   7.65
_cell_length_c                   7.65
_cell_volume                     211.531
_citation_journal_id_ASTM        NJMMAW
_cod_data_source_file            Bachmann_NJMMAW_1953_1983.cif
_cod_data_source_block           O8Pb3V2
_cod_original_cell_volume        211.5311
_cod_original_sg_symbol_Hall     '-R 3 2" (-y+z,x+z,-x+y+z)'
_cod_database_code               1534194
loop_
_symmetry_equiv_pos_as_xyz
x,y,z
z,x,y
y,z,x
-y,-x,-z
-z,-y,-x
-x,-z,-y
-x,-y,-z
-z,-x,-y
-y,-z,-x
y,x,z
z,y,x
x,z,y
loop_
_atom_site_label
_atom_site_type_symbol
_atom_site_fract_x
_atom_site_fract_y
_atom_site_fract_z
_atom_site_occupancy
_atom_site_U_iso_or_equiv
Pb1 Pb+2 0 0 0 1 0.0
O1 O-2 0.335 0.335 0.335 1 0.0
O2 O-2 0.282 0.282 0.75 1 0.0
Pb2 Pb+2 0.208 0.208 0.208 1 0.0
V1 V+5 0.412 0.412 0.412 1 0.0
