#------------------------------------------------------------------------------
#$Date: 2016-02-13 21:28:24 +0200 (Sat, 13 Feb 2016) $
#$Revision: 176429 $
#$URL: svn://www.crystallography.net/cod/cif/1/53/45/1534516.cif $
#------------------------------------------------------------------------------
#
# This file is available in the Crystallography Open Database (COD),
# http://www.crystallography.net/
#
# All data on this site have been placed in the public domain by the
# contributors.
#
data_1534516
loop_
_publ_author_name
'Samaras, D.'
'Bochu, B.'
'Joubert, J.C.'
_publ_section_title
;
 Synthesis, composition, and magnetic properties of the ferrimagnetic Nd
 Cu3-x Mn4+x O12 Perovskite-like phases
;
_journal_name_full               'Journal of Solid State Chemistry'
_journal_page_first              323
_journal_page_last               328
_journal_volume                  53
_journal_year                    1984
_chemical_formula_sum            'Cu2.68 Mn4.32 Nd O12'
_chemical_name_systematic        'Nd Cu2.68 Mn0.32 Mn1.32 Mn2.68 O12'
_space_group_IT_number           204
_symmetry_space_group_name_Hall  '-I 2 2 3'
_symmetry_space_group_name_H-M   'I m -3'
_cell_angle_alpha                90
_cell_angle_beta                 90
_cell_angle_gamma                90
_cell_formula_units_Z            2
_cell_length_a                   7.296
_cell_length_b                   7.296
_cell_length_c                   7.296
_cell_volume                     388.378
_citation_journal_id_ASTM        JSSCBI
_cod_data_source_file            Samaras_JSSCBI_1984_652.cif
_cod_data_source_block           Cu2.68Mn4.32Nd1O12
_cod_original_cell_volume        388.3779
_cod_original_formula_sum        'Cu2.68 Mn4.32 Nd1 O12'
_cod_database_code               1534516
loop_
_symmetry_equiv_pos_as_xyz
x,y,z
-x,-y,z
x,-y,-z
-x,y,-z
z,x,y
-z,-x,y
z,-x,-y
-z,x,-y
y,z,x
y,-z,-x
-y,z,-x
-y,-z,x
-x,-y,-z
x,y,-z
-x,y,z
x,-y,z
-z,-x,-y
z,x,-y
-z,x,y
z,-x,y
-y,-z,-x
-y,z,x
y,-z,x
y,z,-x
x+1/2,y+1/2,z+1/2
-x+1/2,-y+1/2,z+1/2
x+1/2,-y+1/2,-z+1/2
-x+1/2,y+1/2,-z+1/2
z+1/2,x+1/2,y+1/2
-z+1/2,-x+1/2,y+1/2
z+1/2,-x+1/2,-y+1/2
-z+1/2,x+1/2,-y+1/2
y+1/2,z+1/2,x+1/2
y+1/2,-z+1/2,-x+1/2
-y+1/2,z+1/2,-x+1/2
-y+1/2,-z+1/2,x+1/2
-x+1/2,-y+1/2,-z+1/2
x+1/2,y+1/2,-z+1/2
-x+1/2,y+1/2,z+1/2
x+1/2,-y+1/2,z+1/2
-z+1/2,-x+1/2,-y+1/2
z+1/2,x+1/2,-y+1/2
-z+1/2,x+1/2,y+1/2
z+1/2,-x+1/2,y+1/2
-y+1/2,-z+1/2,-x+1/2
-y+1/2,z+1/2,x+1/2
y+1/2,-z+1/2,x+1/2
y+1/2,z+1/2,-x+1/2
loop_
_atom_site_label
_atom_site_type_symbol
_atom_site_fract_x
_atom_site_fract_y
_atom_site_fract_z
_atom_site_occupancy
_atom_site_U_iso_or_equiv
Nd1 Nd+3 0 0 0 1 0.0
Cu1 Cu+2 0 0.5 0.5 0.89 0.0
Mn3 Mn+4 0.25 0.25 0.25 0.67 0.0
Mn2 Mn+3 0.25 0.25 0.25 0.33 0.0
Mn1 Mn+3 0 0.5 0.5 0.11 0.0
O1 O-2 0.2998 0.1805 0 1 0.0
