#------------------------------------------------------------------------------
#$Date: 2016-02-13 21:28:24 +0200 (Sat, 13 Feb 2016) $
#$Revision: 176429 $
#$URL: svn://www.crystallography.net/cod/cif/1/53/43/1534334.cif $
#------------------------------------------------------------------------------
#
# This file is available in the Crystallography Open Database (COD),
# http://www.crystallography.net/
#
# All data on this site have been placed in the public domain by the
# contributors.
#
data_1534334
loop_
_publ_author_name
'Brunn, H.'
'Hoppe, R.'
_publ_section_title
;
 Ueber Rb Se O2 (Se La, Nd, Sm, Eu, Gd) sowie Cs Nd O2
;
_journal_name_full
'Zeitschrift fuer Anorganische und Allgemeine Chemie'
_journal_page_first              213
_journal_page_last               220
_journal_volume                  417
_journal_year                    1975
_chemical_formula_sum            'Cs O2 Sm'
_chemical_name_systematic        'Cs Sm O2'
_space_group_IT_number           194
_symmetry_space_group_name_Hall  '-P 6c 2c'
_symmetry_space_group_name_H-M   'P 63/m m c'
_cell_angle_alpha                90
_cell_angle_beta                 90
_cell_angle_gamma                120
_cell_formula_units_Z            2
_cell_length_a                   3.63
_cell_length_b                   3.63
_cell_length_c                   13.66
_cell_volume                     155.882
_citation_journal_id_ASTM        ZAACAB
_cod_data_source_file            Brunn_ZAACAB_1975_1793.cif
_cod_data_source_block           Cs1O2Sm1
_cod_original_cell_volume        155.8815
_cod_original_formula_sum        'Cs1 O2 Sm1'
_cod_database_code               1534334
loop_
_symmetry_equiv_pos_as_xyz
x,y,z
x-y,x,z+1/2
-y,x-y,z
-x,-y,z+1/2
-x+y,-x,z
y,-x+y,z+1/2
-y,-x,-z+1/2
x-y,-y,-z
x,x-y,-z+1/2
y,x,-z
-x+y,y,-z+1/2
-x,-x+y,-z
-x,-y,-z
-x+y,-x,-z-1/2
y,-x+y,-z
x,y,-z-1/2
x-y,x,-z
-y,x-y,-z-1/2
y,x,z-1/2
-x+y,y,z
-x,-x+y,z-1/2
-y,-x,z
x-y,-y,z-1/2
x,x-y,z
loop_
_atom_site_label
_atom_site_type_symbol
_atom_site_fract_x
_atom_site_fract_y
_atom_site_fract_z
_atom_site_occupancy
_atom_site_U_iso_or_equiv
O1 O-2 0.3333 0.6667 0.43 1 0.0
Cs1 Cs+1 0.6667 0.3333 0.25 1 0.0
Sm1 Sm+3 0 0 0.5 1 0.0
