#------------------------------------------------------------------------------
#$Date: 2016-02-13 21:28:24 +0200 (Sat, 13 Feb 2016) $
#$Revision: 176429 $
#$URL: svn://www.crystallography.net/cod/cif/1/53/40/1534059.cif $
#------------------------------------------------------------------------------
#
# This file is available in the Crystallography Open Database (COD),
# http://www.crystallography.net/
#
# All data on this site have been placed in the public domain by the
# contributors.
#
data_1534059
loop_
_publ_author_name
'Liu, F.S.'
'Liu, Q.L.'
'Liang, J.K.'
'Rao, G.H.'
'Yang, L.T.'
'Song, G.B.'
'Luo, J.'
_publ_section_title
;
 A systematic study on crystal structure and magnetic properties of Ln3 Ga
 O6 (Ln = Nd, Sm, Eu, Gd, Tb, Dy, Ho and Er)
;
_journal_name_full               'Journal of Solid State Chemistry'
_journal_page_first              1796
_journal_page_last               1802
_journal_volume                  177
_journal_year                    2004
_chemical_formula_sum            'Dy3 Ga O6'
_chemical_name_systematic        'Dy3 (Ga O4) O2'
_space_group_IT_number           36
_symmetry_space_group_name_Hall  'C 2c -2'
_symmetry_space_group_name_H-M   'C m c 21'
_cell_angle_alpha                90
_cell_angle_beta                 90
_cell_angle_gamma                90
_cell_formula_units_Z            4
_cell_length_a                   8.8875
_cell_length_b                   11.1512
_cell_length_c                   5.4217
_cell_volume                     537.325
_citation_journal_id_ASTM        JSSCBI
_cod_data_source_file            Liu_JSSCBI_2004_1719.cif
_cod_data_source_block           Dy3Ga1O6
_cod_original_cell_volume        537.3246
_cod_original_formula_sum        'Dy3 Ga1 O6'
_cod_database_code               1534059
loop_
_symmetry_equiv_pos_as_xyz
x,y,z
-x,-y,z+1/2
-x,y,z
x,-y,z+1/2
x+1/2,y+1/2,z
-x+1/2,-y+1/2,z+1/2
-x+1/2,y+1/2,z
x+1/2,-y+1/2,z+1/2
loop_
_atom_site_label
_atom_site_type_symbol
_atom_site_fract_x
_atom_site_fract_y
_atom_site_fract_z
_atom_site_occupancy
_atom_site_U_iso_or_equiv
Ga1 Ga+3 0 0.1929 0 1 0.0
O2 O-2 0.3387 0.0191 0.2 1 0.0
Dy1 Dy+3 0.19292 0.10537 0.46848 1 0.0
Dy2 Dy+3 0 0.397 0.42391 1 0.0
O4 O-2 0 0.2147 0.672 1 0.0
O3 O-2 0 0.045 0.125 1 0.0
O1 O-2 0.1613 0.261 0.181 1 0.0
