#------------------------------------------------------------------------------
#$Date: 2016-02-13 21:28:24 +0200 (Sat, 13 Feb 2016) $
#$Revision: 176429 $
#$URL: svn://www.crystallography.net/cod/cif/1/53/40/1534055.cif $
#------------------------------------------------------------------------------
#
# This file is available in the Crystallography Open Database (COD),
# http://www.crystallography.net/
#
# All data on this site have been placed in the public domain by the
# contributors.
#
data_1534055
loop_
_publ_author_name
'Liu, F.S.'
'Liu, Q.L.'
'Liang, J.K.'
'Rao, G.H.'
'Song, G.B.'
'Luo, J.'
'Yang, L.T.'
_publ_section_title
;
 A systematic study on crystal structure and magnetic properties of Ln3 Ga
 O6 (Ln = Nd, Sm, Eu, Gd, Tb, Dy, Ho and Er)
;
_journal_name_full               'Journal of Solid State Chemistry'
_journal_page_first              1796
_journal_page_last               1802
_journal_volume                  177
_journal_year                    2004
_chemical_formula_sum            'Ga O6 Sm3'
_chemical_name_systematic        'Sm3 (Ga O4) O2'
_space_group_IT_number           36
_symmetry_space_group_name_Hall  'C 2c -2'
_symmetry_space_group_name_H-M   'C m c 21'
_cell_angle_alpha                90
_cell_angle_beta                 90
_cell_angle_gamma                90
_cell_formula_units_Z            4
_cell_length_a                   9.0743
_cell_length_b                   11.407
_cell_length_c                   5.5181
_cell_volume                     571.182
_citation_journal_id_ASTM        JSSCBI
_cod_data_source_file            Liu_JSSCBI_2004_1715.cif
_cod_data_source_block           Ga1O6Sm3
_cod_original_cell_volume        571.1815
_cod_original_formula_sum        'Ga1 O6 Sm3'
_cod_database_code               1534055
loop_
_symmetry_equiv_pos_as_xyz
x,y,z
-x,-y,z+1/2
-x,y,z
x,-y,z+1/2
x+1/2,y+1/2,z
-x+1/2,-y+1/2,z+1/2
-x+1/2,y+1/2,z
x+1/2,-y+1/2,z+1/2
loop_
_atom_site_label
_atom_site_type_symbol
_atom_site_fract_x
_atom_site_fract_y
_atom_site_fract_z
_atom_site_occupancy
_atom_site_U_iso_or_equiv
O4 O-2 0 0.212 0.677 1 0.0
Sm2 Sm+3 0 0.39555 0.42369 1 0.0
Sm1 Sm+3 0.19342 0.10612 0.46585 1 0.0
O2 O-2 0.3382 0.0173 0.203 1 0.0
O3 O-2 0 0.0501 0.126 1 0.0
O1 O-2 0.1523 0.2626 0.172 1 0.0
Ga1 Ga+3 0 0.19234 0 1 0.0
