#------------------------------------------------------------------------------
#$Date: 2018-09-27 07:13:35 +0300 (Thu, 27 Sep 2018) $
#$Revision: 211196 $
#$URL: file:///home/coder/svn-repositories/cod/cif/1/53/42/1534264.cif $
#------------------------------------------------------------------------------
#
# This file is available in the Crystallography Open Database (COD),
# http://www.crystallography.net/
#
# All data on this site have been placed in the public domain by the
# contributors.
#
data_1534264
loop_
_publ_author_name
'Bezmaternykh, L.N.'
'Vasil'ev, A.D.'
'Gudim, I.A.'
'Temerov, V.L.'
_publ_section_title
;
 The growth and structure of Pb3 Ga2 Ge4 O14 and Ba3 Ga2 Ge4 O14 single
 crystals
;
_journal_name_full               Kristallografiya
_journal_page_first              325
_journal_page_last               328
_journal_volume                  49
_journal_year                    2004
_chemical_formula_sum            'Ba3 Ga2 Ge4 O14'
_space_group_IT_number           150
_symmetry_space_group_name_Hall  'P 3 2"'
_symmetry_space_group_name_H-M   'P 3 2 1'
_cell_angle_alpha                90
_cell_angle_beta                 90
_cell_angle_gamma                120
_cell_formula_units_Z            1
_cell_length_a                   8.367
_cell_length_b                   8.367
_cell_length_c                   5.4397
_cell_volume                     329.796
_citation_journal_id_ASTM        KRISAJ
_cod_data_source_file            Bezmaternykh_KRISAJ_2004_517.cif
_cod_data_source_block           Ba3Ga2Ge4O14
_cod_original_cell_volume        329.7958
_cod_database_code               1534264
loop_
_symmetry_equiv_pos_as_xyz
x,y,z
-y,x-y,z
-x+y,-x,z
y,x,-z
-x,-x+y,-z
x-y,-y,-z
loop_
_atom_site_label
_atom_site_type_symbol
_atom_site_fract_x
_atom_site_fract_y
_atom_site_fract_z
_atom_site_occupancy
_atom_site_U_iso_or_equiv
Ga1 Ga+3 0.6667 0.3333 0.4878 1 0.0
Ge2 Ge+4 0.2435 0 0.5 1 0.0
Ba1 Ba+2 0.5836 0 0 1 0.0
O3 O-2 0.207 0.118 0.751 1 0.0
O1 O-2 0.6667 0.3333 0.796 1 0.0
O2 O-2 0.703 0.541 0.355 1 0.0
Ge1 Ge+4 0 0 0 1 0.0
