#------------------------------------------------------------------------------
#$Date: 2018-09-27 07:13:35 +0300 (Thu, 27 Sep 2018) $
#$Revision: 211196 $
#$URL: file:///home/coder/svn-repositories/cod/cif/1/53/59/1535965.cif $
#------------------------------------------------------------------------------
#
# This file is available in the Crystallography Open Database (COD),
# http://www.crystallography.net/
#
# All data on this site have been placed in the public domain by the
# contributors.
#
data_1535965
loop_
_publ_author_name
'Velden, A.'
'Jansen, M.'
_publ_section_title
;
 Zur Kenntnis der inversen Perowskite M3 T O (M = Ca, Sr, Yb; T = Si, Ge,
 Sn, Pb)
;
_journal_name_full
'Zeitschrift fuer Anorganische und Allgemeine Chemie'
_journal_page_first              234
_journal_page_last               238
_journal_volume                  630
_journal_year                    2004
_chemical_formula_sum            'Ca3 Ge O'
_space_group_IT_number           62
_symmetry_space_group_name_Hall  '-P 2c 2ab'
_symmetry_space_group_name_H-M   'P b n m'
_cell_angle_alpha                90
_cell_angle_beta                 90
_cell_angle_gamma                90
_cell_formula_units_Z            4
_cell_length_a                   6.6808
_cell_length_b                   6.6888
_cell_length_c                   9.4511
_cell_volume                     422.337
_citation_journal_id_ASTM        ZAACAB
_cod_data_source_file            Velden_ZAACAB_2004_1186.cif
_cod_data_source_block           Ca3Ge1O1
_cod_original_cell_volume        422.3369
_cod_original_sg_symbol_Hall     '-P 2ac 2n (z,x,y)'
_cod_original_formula_sum        'Ca3 Ge1 O1'
_cod_database_code               1535965
loop_
_symmetry_equiv_pos_as_xyz
x,y,z
x+1/2,-y+1/2,-z
-x+1/2,y+1/2,-z+1/2
-x,-y,z+1/2
-x,-y,-z
-x-1/2,y-1/2,z
x-1/2,-y-1/2,z-1/2
x,y,-z-1/2
loop_
_atom_site_label
_atom_site_type_symbol
_atom_site_fract_x
_atom_site_fract_y
_atom_site_fract_z
_atom_site_occupancy
_atom_site_U_iso_or_equiv
O1 O-2 0.5 0 0 1 0.0
Ca2 Ca+2 0.75 0.25 -0.015 1 0.0
Ge1 Ge-4 0.998 -0.002 0.25 1 0.0
Ca1 Ca+2 -0.014 0.503 0.25 1 0.0
