#------------------------------------------------------------------------------
#$Date: 2015-10-10 00:38:26 +0300 (Sat, 10 Oct 2015) $
#$Revision: 163449 $
#$URL: svn://www.crystallography.net/cod/cif/1/53/59/1535940.cif $
#------------------------------------------------------------------------------
#
# This file is available in the Crystallography Open Database (COD),
# http://www.crystallography.net/
#
# All data on this site have been placed in the public domain by the
# contributors.
#
data_1535940
loop_
_publ_author_name
'Vance, T.B.jr.'
'Seff, K.'
_publ_section_title
;
 Hydrated and dehydrated crystal structures of seventwelfths
 cesium-exchanged zeolite A
;
_journal_name_full               'Journal of Physical Chemistry'
_journal_page_first              2163
_journal_page_last               2167
_journal_volume                  79
_journal_year                    1975
_chemical_formula_sum            'Al12 Cs7 Na5 O48 Si12'
_chemical_name_systematic        'Cs7 Na5 (Al12 Si12 O48)'
_space_group_IT_number           221
_symmetry_space_group_name_Hall  '-P 4 2 3'
_symmetry_space_group_name_H-M   'P m -3 m'
_cell_angle_alpha                90
_cell_angle_beta                 90
_cell_angle_gamma                90
_cell_formula_units_Z            1
_cell_length_a                   12.32
_cell_length_b                   12.32
_cell_length_c                   12.32
_cell_volume                     1869.959
_citation_journal_id_ASTM        JPCHAX
_cod_data_source_file            Vance_JPCHAX_1975_1711.cif
_cod_data_source_block           Al12Cs7Na5O48Si12
_cod_database_code               1535940
loop_
_symmetry_equiv_pos_as_xyz
x,y,z
-y,x,z
-x,-y,z
y,-x,z
x,-y,-z
y,x,-z
-x,y,-z
-y,-x,-z
z,x,y
-x,z,y
-z,-x,y
x,-z,y
z,-x,-y
x,z,-y
-z,x,-y
-x,-z,-y
y,z,x
y,-z,-x
z,y,-x
-y,z,-x
-z,-y,-x
-y,-z,x
z,-y,x
-z,y,x
-x,-y,-z
y,-x,-z
x,y,-z
-y,x,-z
-x,y,z
-y,-x,z
x,-y,z
y,x,z
-z,-x,-y
x,-z,-y
z,x,-y
-x,z,-y
-z,x,y
-x,-z,y
z,-x,y
x,z,y
-y,-z,-x
-y,z,x
-z,-y,x
y,-z,x
z,y,x
y,z,-x
-z,y,-x
z,-y,-x
loop_
_atom_site_label
_atom_site_type_symbol
_atom_site_fract_x
_atom_site_fract_y
_atom_site_fract_z
_atom_site_occupancy
_atom_site_U_iso_or_equiv
Cs3 Cs+1 0.0872 0.0872 0.0872 0.125 0.0
O3 O-2 0.1104 0.1104 0.3437 1 0.0
Si1 Si+4 0 0.1832 0.3714 0.5 0.0
O2 O-2 0 0.2944 0.2944 1 0.0
O1 O-2 0 0.2239 0.5 1 0.0
Na1 Na+1 0.2166 0.2166 0.2166 0.5 0.0
Cs1 Cs+1 0 0.5 0.5 1 0.0
Cs2 Cs+1 0.2841 0.2841 0.2841 0.375 0.0
Al1 Al+3 0 0.1832 0.3714 0.5 0.0
