#------------------------------------------------------------------------------
#$Date: 2015-10-09 23:48:04 +0300 (Fri, 09 Oct 2015) $
#$Revision: 163224 $
#$URL: svn://www.crystallography.net/cod/cif/1/53/57/1535762.cif $
#------------------------------------------------------------------------------
#
# This file is available in the Crystallography Open Database (COD),
# http://www.crystallography.net/
#
# All data on this site have been placed in the public domain by the
# contributors.
#
data_1535762
loop_
_publ_author_name
'Tsybulya, S.V.'
'Solov'eva, L.P.'
'Plyasova, L.M.'
'Krivoruchko, O.P.'
_publ_section_title
;
 The study of non-stoichiometric spinels by profile analysis.
 II.Refinement of the cationic distribution in non-stoichiometric Al-Zn
 spinel
;
_journal_name_full
'Zhurnal Strukturnoi Khimii (Issue-No. from 1981)'
_journal_page_first              86
_journal_page_last               89
_journal_volume                  32
_journal_year                    1991
_chemical_formula_sum            'Al2.4 O4 Zn0.3'
_chemical_name_systematic        '(Zn0.3 Al0.7) Al1.7 O4'
_space_group_IT_number           227
_symmetry_space_group_name_Hall  '-F 4vw 2vw 3'
_symmetry_space_group_name_H-M   'F d -3 m :2'
_cell_angle_alpha                90
_cell_angle_beta                 90
_cell_angle_gamma                90
_cell_formula_units_Z            8
_cell_length_a                   8
_cell_length_b                   8
_cell_length_c                   8
_cell_volume                     512.000
_citation_journal_id_ASTM        ZSTKAI
_cod_data_source_file            Tsybulya_ZSTKAI_1991_1177.cif
_cod_data_source_block           Al2.4O4Zn0.3
_cod_original_cell_volume        512
_cod_database_code               1535762
loop_
_symmetry_equiv_pos_as_xyz
x,y,z
-y,x+1/4,z+1/4
-x+3/4,-y+1/4,z+1/2
y+3/4,-x,z+3/4
x,-y+1/4,-z+1/4
y+3/4,x+1/4,-z+1/2
-x+3/4,y,-z+3/4
-y,-x,-z
z,x,y
-x,z+1/4,y+1/4
-z+3/4,-x+1/4,y+1/2
x+3/4,-z,y+3/4
z,-x+1/4,-y+1/4
x+3/4,z+1/4,-y+1/2
-z+3/4,x,-y+3/4
-x,-z,-y
y,z,x
y+1/2,-z+3/4,-x+1/4
z+1/4,y+3/4,-x+1/2
-y+1/4,z+1/2,-x+3/4
-z,-y+1/2,-x+1/2
-y+1/4,-z+1/4,x
z+1/4,-y,x+1/4
-z+1/2,y+1/4,x+3/4
-x,-y,-z
y,-x-1/4,-z-1/4
x-3/4,y-1/4,-z-1/2
-y-3/4,x,-z-3/4
-x,y-1/4,z-1/4
-y-3/4,-x-1/4,z-1/2
x-3/4,-y,z-3/4
y,x,z
-z,-x,-y
x,-z-1/4,-y-1/4
z-3/4,x-1/4,-y-1/2
-x-3/4,z,-y-3/4
-z,x-1/4,y-1/4
-x-3/4,-z-1/4,y-1/2
z-3/4,-x,y-3/4
x,z,y
-y,-z,-x
-y-1/2,z-3/4,x-1/4
-z-1/4,-y-3/4,x-1/2
y-1/4,-z-1/2,x-3/4
z,y-1/2,x-1/2
y-1/4,z-1/4,-x
-z-1/4,y,-x-1/4
z-1/2,-y-1/4,-x-3/4
x,y+1/2,z+1/2
-y,x+3/4,z+3/4
-x+3/4,-y+3/4,z+1
y+3/4,-x+1/2,z+5/4
x,-y+3/4,-z+3/4
y+3/4,x+3/4,-z+1
-x+3/4,y+1/2,-z+5/4
-y,-x+1/2,-z+1/2
z,x+1/2,y+1/2
-x,z+3/4,y+3/4
-z+3/4,-x+3/4,y+1
x+3/4,-z+1/2,y+5/4
z,-x+3/4,-y+3/4
x+3/4,z+3/4,-y+1
-z+3/4,x+1/2,-y+5/4
-x,-z+1/2,-y+1/2
y,z+1/2,x+1/2
y+1/2,-z+5/4,-x+3/4
z+1/4,y+5/4,-x+1
-y+1/4,z+1,-x+5/4
-z,-y+1,-x+1
-y+1/4,-z+3/4,x+1/2
z+1/4,-y+1/2,x+3/4
-z+1/2,y+3/4,x+5/4
-x,-y+1/2,-z+1/2
y,-x+1/4,-z+1/4
x-3/4,y+1/4,-z
-y-3/4,x+1/2,-z-1/4
-x,y+1/4,z+1/4
-y-3/4,-x+1/4,z
x-3/4,-y+1/2,z-1/4
y,x+1/2,z+1/2
-z,-x+1/2,-y+1/2
x,-z+1/4,-y+1/4
z-3/4,x+1/4,-y
-x-3/4,z+1/2,-y-1/4
-z,x+1/4,y+1/4
-x-3/4,-z+1/4,y
z-3/4,-x+1/2,y-1/4
x,z+1/2,y+1/2
-y,-z+1/2,-x+1/2
-y-1/2,z-1/4,x+1/4
-z-1/4,-y-1/4,x
y-1/4,-z,x-1/4
z,y,x
y-1/4,z+1/4,-x+1/2
-z-1/4,y+1/2,-x+1/4
z-1/2,-y+1/4,-x-1/4
x+1/2,y,z+1/2
-y+1/2,x+1/4,z+3/4
-x+5/4,-y+1/4,z+1
y+5/4,-x,z+5/4
x+1/2,-y+1/4,-z+3/4
y+5/4,x+1/4,-z+1
-x+5/4,y,-z+5/4
-y+1/2,-x,-z+1/2
z+1/2,x,y+1/2
-x+1/2,z+1/4,y+3/4
-z+5/4,-x+1/4,y+1
x+5/4,-z,y+5/4
z+1/2,-x+1/4,-y+3/4
x+5/4,z+1/4,-y+1
-z+5/4,x,-y+5/4
-x+1/2,-z,-y+1/2
y+1/2,z,x+1/2
y+1,-z+3/4,-x+3/4
z+3/4,y+3/4,-x+1
-y+3/4,z+1/2,-x+5/4
-z+1/2,-y+1/2,-x+1
-y+3/4,-z+1/4,x+1/2
z+3/4,-y,x+3/4
-z+1,y+1/4,x+5/4
-x+1/2,-y,-z+1/2
y+1/2,-x-1/4,-z+1/4
x-1/4,y-1/4,-z
-y-1/4,x,-z-1/4
-x+1/2,y-1/4,z+1/4
-y-1/4,-x-1/4,z
x-1/4,-y,z-1/4
y+1/2,x,z+1/2
-z+1/2,-x,-y+1/2
x+1/2,-z-1/4,-y+1/4
z-1/4,x-1/4,-y
-x-1/4,z,-y-1/4
-z+1/2,x-1/4,y+1/4
-x-1/4,-z-1/4,y
z-1/4,-x,y-1/4
x+1/2,z,y+1/2
-y+1/2,-z,-x+1/2
-y,z-3/4,x+1/4
-z+1/4,-y-3/4,x
y+1/4,-z-1/2,x-1/4
z+1/2,y-1/2,x
y+1/4,z-1/4,-x+1/2
-z+1/4,y,-x+1/4
z,-y-1/4,-x-1/4
x+1/2,y+1/2,z
-y+1/2,x+3/4,z+1/4
-x+5/4,-y+3/4,z+1/2
y+5/4,-x+1/2,z+3/4
x+1/2,-y+3/4,-z+1/4
y+5/4,x+3/4,-z+1/2
-x+5/4,y+1/2,-z+3/4
-y+1/2,-x+1/2,-z
z+1/2,x+1/2,y
-x+1/2,z+3/4,y+1/4
-z+5/4,-x+3/4,y+1/2
x+5/4,-z+1/2,y+3/4
z+1/2,-x+3/4,-y+1/4
x+5/4,z+3/4,-y+1/2
-z+5/4,x+1/2,-y+3/4
-x+1/2,-z+1/2,-y
y+1/2,z+1/2,x
y+1,-z+5/4,-x+1/4
z+3/4,y+5/4,-x+1/2
-y+3/4,z+1,-x+3/4
-z+1/2,-y+1,-x+1/2
-y+3/4,-z+3/4,x
z+3/4,-y+1/2,x+1/4
-z+1,y+3/4,x+3/4
-x+1/2,-y+1/2,-z
y+1/2,-x+1/4,-z-1/4
x-1/4,y+1/4,-z-1/2
-y-1/4,x+1/2,-z-3/4
-x+1/2,y+1/4,z-1/4
-y-1/4,-x+1/4,z-1/2
x-1/4,-y+1/2,z-3/4
y+1/2,x+1/2,z
-z+1/2,-x+1/2,-y
x+1/2,-z+1/4,-y-1/4
z-1/4,x+1/4,-y-1/2
-x-1/4,z+1/2,-y-3/4
-z+1/2,x+1/4,y-1/4
-x-1/4,-z+1/4,y-1/2
z-1/4,-x+1/2,y-3/4
x+1/2,z+1/2,y
-y+1/2,-z+1/2,-x
-y,z-1/4,x-1/4
-z+1/4,-y-1/4,x-1/2
y+1/4,-z,x-3/4
z+1/2,y,x-1/2
y+1/4,z+1/4,-x
-z+1/4,y+1/2,-x-1/4
z,-y+1/4,-x-3/4
loop_
_atom_site_label
_atom_site_type_symbol
_atom_site_fract_x
_atom_site_fract_y
_atom_site_fract_z
_atom_site_occupancy
_atom_site_U_iso_or_equiv
Al1 Al+3 0.125 0.125 0.125 0.7 0.0
Al2 Al+3 0.5 0.5 0.5 0.85 0.0
O1 O-2 0.258 0.258 0.258 1 0.0
Zn1 Zn+2 0.125 0.125 0.125 0.3 0.0
