#------------------------------------------------------------------------------
#$Date: 2016-02-13 21:28:24 +0200 (Sat, 13 Feb 2016) $
#$Revision: 176429 $
#$URL: svn://www.crystallography.net/cod/cif/1/53/56/1535688.cif $
#------------------------------------------------------------------------------
#
# This file is available in the Crystallography Open Database (COD),
# http://www.crystallography.net/
#
# All data on this site have been placed in the public domain by the
# contributors.
#
data_1535688
loop_
_publ_author_name
'Mugavero, S.J.'
'Smith, M.D.'
'zur Loye, H.C.'
_publ_section_title
;
 Crystal growth and magnetic properties of Ln2 Li Ir O6 (Ln = Pr, Nd, Sm,
 Eu)
;
_journal_name_full               'Journal of Solid State Chemistry'
_journal_page_first              200
_journal_page_last               206
_journal_volume                  178
_journal_year                    2005
_chemical_formula_sum            'Ir Li O6 Sm2'
_chemical_name_systematic        'Sm2 Li Ir O6'
_space_group_IT_number           14
_symmetry_space_group_name_Hall  '-P 2yn'
_symmetry_space_group_name_H-M   'P 1 21/n 1'
_cell_angle_alpha                90
_cell_angle_beta                 90.368
_cell_angle_gamma                90
_cell_formula_units_Z            2
_cell_length_a                   5.3736
_cell_length_b                   5.748
_cell_length_c                   7.6346
_cell_volume                     235.808
_citation_journal_id_ASTM        JSSCBI
_cod_data_source_file            Mugavero_JSSCBI_2005_1660.cif
_cod_data_source_block           Ir1Li1O6Sm2
_cod_original_cell_volume        235.8085
_cod_original_sg_symbol_Hall     '-P 2ybc (x-z,y,z)'
_cod_original_formula_sum        'Ir1 Li1 O6 Sm2'
_cod_database_code               1535688
loop_
_symmetry_equiv_pos_as_xyz
x,y,z
-x+1/2,y+1/2,-z+1/2
-x,-y,-z
x-1/2,-y-1/2,z-1/2
loop_
_atom_site_label
_atom_site_type_symbol
_atom_site_fract_x
_atom_site_fract_y
_atom_site_fract_z
_atom_site_occupancy
_atom_site_U_iso_or_equiv
Li1 Li+1 0 0 0 1 0.0
O2 O-2 0.6026 0.4668 0.2438 1 0.0
Sm1 Sm+3 0.48175 0.07261 0.25167 1 0.0
Ir1 Ir+5 0.5 0.5 0 1 0.0
O3 O-2 0.3225 0.791 0.0545 1 0.0
O1 O-2 0.1995 0.315 0.0482 1 0.0
