#------------------------------------------------------------------------------
#$Date: 2016-02-13 21:28:24 +0200 (Sat, 13 Feb 2016) $
#$Revision: 176429 $
#$URL: svn://www.crystallography.net/cod/cif/1/53/62/1536277.cif $
#------------------------------------------------------------------------------
#
# This file is available in the Crystallography Open Database (COD),
# http://www.crystallography.net/
#
# All data on this site have been placed in the public domain by the
# contributors.
#
data_1536277
loop_
_publ_author_name
'Davis, M.J.'
'Mugavero, S.J.'
'Glab, K.I.'
'Smith, M.D.'
'zur Loye, H.C.'
_publ_section_title
;
 The crystal growth and characterization of the lanthanide-containing
 double perovskites Ln2 Na Ir O6 (Ln= La, Pr, Nd).
;
_journal_name_full               'Solid State Sciences'
_journal_page_first              413
_journal_page_last               417
_journal_volume                  6
_journal_year                    2004
_chemical_formula_sum            'Ir La2 Na O6'
_chemical_name_systematic        'La2 Na Ir O6'
_space_group_IT_number           14
_symmetry_space_group_name_Hall  '-P 2yn'
_symmetry_space_group_name_H-M   'P 1 21/n 1'
_cell_angle_alpha                90
_cell_angle_beta                 90.425
_cell_angle_gamma                90
_cell_formula_units_Z            2
_cell_length_a                   5.5959
_cell_length_b                   5.9499
_cell_length_c                   8.0213
_cell_volume                     267.062
_citation_journal_id_ASTM        SSSCFJ
_cod_data_source_file            Davis_SSSCFJ_2004_1340.cif
_cod_data_source_block           Ir1La2Na1O6
_cod_original_cell_volume        267.0622
_cod_original_sg_symbol_Hall     '-P 2ybc (x-z,y,z)'
_cod_original_formula_sum        'Ir1 La2 Na1 O6'
_cod_database_code               1536277
loop_
_symmetry_equiv_pos_as_xyz
x,y,z
-x+1/2,y+1/2,-z+1/2
-x,-y,-z
x-1/2,-y-1/2,z-1/2
loop_
_atom_site_label
_atom_site_type_symbol
_atom_site_fract_x
_atom_site_fract_y
_atom_site_fract_z
_atom_site_occupancy
_atom_site_U_iso_or_equiv
O2 O-2 0.6032 0.4617 0.2314 1 0.0
La1 La+3 0.48283 0.06557 0.25175 1 0.0
Na1 Na+1 0 0 0 1 0.0
O1 O-2 0.2123 0.3239 0.0485 1 0.0
O3 O-2 0.3305 0.7796 0.0588 1 0.0
Ir1 Ir+5 0.5 0.5 0 1 0.0
