#------------------------------------------------------------------------------
#$Date: 2016-02-13 21:28:24 +0200 (Sat, 13 Feb 2016) $
#$Revision: 176429 $
#$URL: svn://www.crystallography.net/cod/cif/1/53/60/1536050.cif $
#------------------------------------------------------------------------------
#
# This file is available in the Crystallography Open Database (COD),
# http://www.crystallography.net/
#
# All data on this site have been placed in the public domain by the
# contributors.
#
data_1536050
loop_
_publ_author_name
'James, M.'
'Withers, R.L.'
'Goossens, D.J.'
'Cassidy, D.'
_publ_section_title
;
 The phase diagram and tetragonal superstructures of the rare earth
 cobaltate phases Ln1-x Srx Co O3-d (Ln = La(3+), Pr(3+), Nd(3+), Sm(3+),
 Gd(3+), Y(3+), Ho(3+), Dy(3+), Er(3+), Tm(3+) and Yb(3+))
;
_journal_name_full               'Journal of Solid State Chemistry'
_journal_page_first              1886
_journal_page_last               1895
_journal_volume                  177
_journal_year                    2004
_chemical_formula_sum            'Co O2.79 Sr0.95 Y0.05'
_chemical_name_systematic        'Y0.05 Sr0.95 (Co O2.79)'
_space_group_IT_number           123
_symmetry_space_group_name_Hall  '-P 4 2'
_symmetry_space_group_name_H-M   'P 4/m m m'
_cell_angle_alpha                90
_cell_angle_beta                 90
_cell_angle_gamma                90
_cell_formula_units_Z            2
_cell_length_a                   3.8338
_cell_length_b                   3.8338
_cell_length_c                   7.6845
_cell_volume                     112.947
_citation_journal_id_ASTM        JSSCBI
_cod_data_source_file            James_JSSCBI_2004_1445.cif
_cod_data_source_block           Co1O2.79Sr0.95Y0.05
_cod_original_formula_sum        'Co1 O2.79 Sr0.95 Y0.05'
_cod_database_code               1536050
loop_
_symmetry_equiv_pos_as_xyz
x,y,z
-y,x,z
-x,-y,z
y,-x,z
x,-y,-z
y,x,-z
-x,y,-z
-y,-x,-z
-x,-y,-z
y,-x,-z
x,y,-z
-y,x,-z
-x,y,z
-y,-x,z
x,-y,z
y,x,z
loop_
_atom_site_label
_atom_site_type_symbol
_atom_site_fract_x
_atom_site_fract_y
_atom_site_fract_z
_atom_site_occupancy
_atom_site_U_iso_or_equiv
Y1 Y+3 0.5 0.5 0.237 0.05 0.0
O2 O-2 0 0 0.253 0.79 0.0
O1 O-2 0.5 0 0 1 0.0
Sr1 Sr+2 0.5 0.5 0.237 0.95 0.0
Co2 Co+3 0 0 0.5 1 0.0
Co1 Co+3 0 0 0 1 0.0
O3 O-2 0.5 0 0.5 1 0.0
