#------------------------------------------------------------------------------
#$Date: 2016-02-13 21:28:24 +0200 (Sat, 13 Feb 2016) $
#$Revision: 176429 $
#$URL: svn://www.crystallography.net/cod/cif/1/53/66/1536639.cif $
#------------------------------------------------------------------------------
#
# This file is available in the Crystallography Open Database (COD),
# http://www.crystallography.net/
#
# All data on this site have been placed in the public domain by the
# contributors.
#
data_1536639
loop_
_publ_author_name
'Kim, S.-J.'
'Smith, M.D.'
'Darriet, J.'
'zur Loye, H.C.'
_publ_section_title
;
 Crystal growth of new perovskite and perovskite related iridates: Ba3 Li
 Ir2 O9, Ba3 Na Ir2 O9, and Ba3.44 K1.56 Ir2 O10
;
_journal_name_full               'Journal of Solid State Chemistry'
_journal_page_first              1493
_journal_page_last               1500
_journal_volume                  177
_journal_year                    2004
_chemical_formula_sum            'Ba3 Ir2 Li O9'
_chemical_name_systematic        'Ba3 Li (Ir2 O9)'
_space_group_IT_number           194
_symmetry_space_group_name_Hall  '-P 6c 2c'
_symmetry_space_group_name_H-M   'P 63/m m c'
_cell_angle_alpha                90
_cell_angle_beta                 90
_cell_angle_gamma                120
_cell_formula_units_Z            2
_cell_length_a                   5.7804
_cell_length_b                   5.7804
_cell_length_c                   14.3022
_cell_volume                     413.856
_citation_journal_id_ASTM        JSSCBI
_cod_data_source_file            Kim_JSSCBI_2004_1236.cif
_cod_data_source_block           Ba3Ir2Li1O9
_cod_original_formula_sum        'Ba3 Ir2 Li1 O9'
_cod_database_code               1536639
loop_
_symmetry_equiv_pos_as_xyz
x,y,z
x-y,x,z+1/2
-y,x-y,z
-x,-y,z+1/2
-x+y,-x,z
y,-x+y,z+1/2
-y,-x,-z+1/2
x-y,-y,-z
x,x-y,-z+1/2
y,x,-z
-x+y,y,-z+1/2
-x,-x+y,-z
-x,-y,-z
-x+y,-x,-z-1/2
y,-x+y,-z
x,y,-z-1/2
x-y,x,-z
-y,x-y,-z-1/2
y,x,z-1/2
-x+y,y,z
-x,-x+y,z-1/2
-y,-x,z
x-y,-y,z-1/2
x,x-y,z
loop_
_atom_site_label
_atom_site_type_symbol
_atom_site_fract_x
_atom_site_fract_y
_atom_site_fract_z
_atom_site_occupancy
_atom_site_U_iso_or_equiv
Ba2 Ba+2 0 0 0.25 1 0.0
Ir1 Ir+5 0.3333 0.6667 0.15364 1 0.0
Li1 Li+1 0 0 0 1 0.0
O2 O-2 0.1734 0.3469 0.0849 1 0.0
Ba1 Ba+2 0.6667 0.3333 0.08653 1 0.0
O1 O-2 0.4836 0.5164 0.25 1 0.0
