#------------------------------------------------------------------------------
#$Date: 2016-02-13 21:28:24 +0200 (Sat, 13 Feb 2016) $
#$Revision: 176429 $
#$URL: svn://www.crystallography.net/cod/cif/1/53/60/1536006.cif $
#------------------------------------------------------------------------------
#
# This file is available in the Crystallography Open Database (COD),
# http://www.crystallography.net/
#
# All data on this site have been placed in the public domain by the
# contributors.
#
data_1536006
loop_
_publ_author_name
'Vidican, I.'
'Smith, M.D.'
'zur Loye, H.C.'
_publ_section_title
;
 Crystal growth, structure determination and optical properties of new
 potassium-rare-earth silicates K3 RE Si2 O7 (RE = Gd, Tb, Dy, Ho, Er, Tm,
 Yb, Lu)
;
_journal_name_full               'Journal of Solid State Chemistry'
_journal_page_first              203
_journal_page_last               210
_journal_volume                  170
_journal_year                    2003
_chemical_formula_sum            'Gd K3 O7 Si2'
_chemical_name_systematic        'K3 Gd (Si2 O7)'
_space_group_IT_number           193
_symmetry_space_group_name_Hall  '-P 6c 2'
_symmetry_space_group_name_H-M   'P 63/m c m'
_cell_angle_alpha                90
_cell_angle_beta                 90
_cell_angle_gamma                120
_cell_formula_units_Z            6
_cell_length_a                   9.9359
_cell_length_b                   9.9359
_cell_length_c                   14.4295
_cell_volume                     1233.662
_citation_journal_id_ASTM        JSSCBI
_cod_data_source_file            Vidican_JSSCBI_2003_663.cif
_cod_data_source_block           Gd1K3O7Si2
_cod_original_formula_sum        'Gd1 K3 O7 Si2'
_cod_database_code               1536006
loop_
_symmetry_equiv_pos_as_xyz
x,y,z
x-y,x,z+1/2
-y,x-y,z
-x,-y,z+1/2
-x+y,-x,z
y,-x+y,z+1/2
-y,-x,-z
x-y,-y,-z+1/2
x,x-y,-z
y,x,-z+1/2
-x+y,y,-z
-x,-x+y,-z+1/2
-x,-y,-z
-x+y,-x,-z-1/2
y,-x+y,-z
x,y,-z-1/2
x-y,x,-z
-y,x-y,-z-1/2
y,x,z
-x+y,y,z-1/2
-x,-x+y,z
-y,-x,z-1/2
x-y,-y,z
x,x-y,z-1/2
loop_
_atom_site_label
_atom_site_type_symbol
_atom_site_fract_x
_atom_site_fract_y
_atom_site_fract_z
_atom_site_occupancy
_atom_site_U_iso_or_equiv
Gd1 Gd+3 0.6667 0.3333 0 1 0.0
O3 O-2 0.4045 0 0.25 1 0.0
Gd2 Gd+3 0 0 0.25 1 0.0
O1 O-2 0.47589 0.15403 0.09305 1 0.0
Si1 Si+4 0.34151 0 0.14341 1 0.0
O2 O-2 0.17821 0 0.14629 1 0.0
K2 K+1 0.6667 0.3333 0.25 1 0.0
K1 K+1 0.33114 0.33114 0.09104 1 0.0
K3 K+1 0 0 0 1 0.0
