#------------------------------------------------------------------------------
#$Date: 2016-02-13 14:50:18 +0200 (Sat, 13 Feb 2016) $
#$Revision: 176428 $
#$URL: svn://www.crystallography.net/cod/cif/1/53/64/1536464.cif $
#------------------------------------------------------------------------------
#
# This file is available in the Crystallography Open Database (COD),
# http://www.crystallography.net/
#
# All data on this site have been placed in the public domain by the
# contributors.
#
data_1536464
loop_
_publ_author_name
'Djega-Mariadassou, C.'
'Basile, F.'
'Poix, P.'
_publ_section_title
;
 Etude Cristallographique et Magnetique de la Solution Solide
 Fe2-2xNi1+xSnxO4
;
_journal_name_full               'Journal of Solid State Chemistry'
_journal_page_first              99
_journal_page_last               106
_journal_volume                  13
_journal_year                    1975
_chemical_formula_sum            'Fe1.4 Ni1.3 O4 Sn0.3'
_chemical_name_systematic        'Fe1.4 Ni1.3 Sn.3 O4'
_space_group_IT_number           227
_symmetry_space_group_name_Hall  'F 4d 2 3 -1d'
_symmetry_space_group_name_H-M   'F d -3 m :1'
_cell_angle_alpha                90
_cell_angle_beta                 90
_cell_angle_gamma                90
_cell_formula_units_Z            8
_cell_length_a                   8.395
_cell_length_b                   8.395
_cell_length_c                   8.395
_cell_volume                     591.646
_citation_journal_id_ASTM        JSSCBI
_cod_data_source_file            Djega-Mariadassou_JSSCBI_1975_345.cif
_cod_data_source_block           Fe1.4Ni1.3O4Sn0.3
_cod_original_cell_volume        591.6463
_cod_original_sg_symbol_Hall     '-F 4vw 2vw 3 (x+1/8,y+1/8,z+1/8)'
_cod_database_code               1536464
loop_
_symmetry_equiv_pos_as_xyz
x,y,z
-y+1/4,x+1/4,z+1/4
-x,-y+1/2,z+1/2
y+3/4,-x+1/4,z+3/4
x,-y+1/2,-z+1/2
y+3/4,x+1/4,-z+3/4
-x,y,-z
-y+1/4,-x+1/4,-z+1/4
z,x,y
-x+1/4,z+1/4,y+1/4
-z,-x+1/2,y+1/2
x+3/4,-z+1/4,y+3/4
z,-x+1/2,-y+1/2
x+3/4,z+1/4,-y+3/4
-z,x,-y
-x+1/4,-z+1/4,-y+1/4
y,z,x
y+1/2,-z,-x+1/2
z+1/4,y+3/4,-x+3/4
-y+1/2,z+1/2,-x
-z+1/4,-y+3/4,-x+3/4
-y+1/2,-z+1/2,x
z+1/4,-y+1/4,x+1/4
-z+3/4,y+1/4,x+3/4
-x+1/4,-y+1/4,-z+1/4
y,-x,-z
x+1/4,y-1/4,-z-1/4
-y-1/2,x,-z-1/2
-x+1/4,y-1/4,z-1/4
-y-1/2,-x,z-1/2
x+1/4,-y+1/4,z+1/4
y,x,z
-z+1/4,-x+1/4,-y+1/4
x,-z,-y
z+1/4,x-1/4,-y-1/4
-x-1/2,z,-y-1/2
-z+1/4,x-1/4,y-1/4
-x-1/2,-z,y-1/2
z+1/4,-x+1/4,y+1/4
x,z,y
-y+1/4,-z+1/4,-x+1/4
-y-1/4,z+1/4,x-1/4
-z,-y-1/2,x-1/2
y-1/4,-z-1/4,x+1/4
z,y-1/2,x-1/2
y-1/4,z-1/4,-x+1/4
-z,y,-x
z-1/2,-y,-x-1/2
x,y+1/2,z+1/2
-y+1/4,x+3/4,z+3/4
-x,-y+1,z+1
y+3/4,-x+3/4,z+5/4
x,-y+1,-z+1
y+3/4,x+3/4,-z+5/4
-x,y+1/2,-z+1/2
-y+1/4,-x+3/4,-z+3/4
z,x+1/2,y+1/2
-x+1/4,z+3/4,y+3/4
-z,-x+1,y+1
x+3/4,-z+3/4,y+5/4
z,-x+1,-y+1
x+3/4,z+3/4,-y+5/4
-z,x+1/2,-y+1/2
-x+1/4,-z+3/4,-y+3/4
y,z+1/2,x+1/2
y+1/2,-z+1/2,-x+1
z+1/4,y+5/4,-x+5/4
-y+1/2,z+1,-x+1/2
-z+1/4,-y+5/4,-x+5/4
-y+1/2,-z+1,x+1/2
z+1/4,-y+3/4,x+3/4
-z+3/4,y+3/4,x+5/4
-x+1/4,-y+3/4,-z+3/4
y,-x+1/2,-z+1/2
x+1/4,y+1/4,-z+1/4
-y-1/2,x+1/2,-z
-x+1/4,y+1/4,z+1/4
-y-1/2,-x+1/2,z
x+1/4,-y+3/4,z+3/4
y,x+1/2,z+1/2
-z+1/4,-x+3/4,-y+3/4
x,-z+1/2,-y+1/2
z+1/4,x+1/4,-y+1/4
-x-1/2,z+1/2,-y
-z+1/4,x+1/4,y+1/4
-x-1/2,-z+1/2,y
z+1/4,-x+3/4,y+3/4
x,z+1/2,y+1/2
-y+1/4,-z+3/4,-x+3/4
-y-1/4,z+3/4,x+1/4
-z,-y,x
y-1/4,-z+1/4,x+3/4
z,y,x
y-1/4,z+1/4,-x+3/4
-z,y+1/2,-x+1/2
z-1/2,-y+1/2,-x
x+1/2,y,z+1/2
-y+3/4,x+1/4,z+3/4
-x+1/2,-y+1/2,z+1
y+5/4,-x+1/4,z+5/4
x+1/2,-y+1/2,-z+1
y+5/4,x+1/4,-z+5/4
-x+1/2,y,-z+1/2
-y+3/4,-x+1/4,-z+3/4
z+1/2,x,y+1/2
-x+3/4,z+1/4,y+3/4
-z+1/2,-x+1/2,y+1
x+5/4,-z+1/4,y+5/4
z+1/2,-x+1/2,-y+1
x+5/4,z+1/4,-y+5/4
-z+1/2,x,-y+1/2
-x+3/4,-z+1/4,-y+3/4
y+1/2,z,x+1/2
y+1,-z,-x+1
z+3/4,y+3/4,-x+5/4
-y+1,z+1/2,-x+1/2
-z+3/4,-y+3/4,-x+5/4
-y+1,-z+1/2,x+1/2
z+3/4,-y+1/4,x+3/4
-z+5/4,y+1/4,x+5/4
-x+3/4,-y+1/4,-z+3/4
y+1/2,-x,-z+1/2
x+3/4,y-1/4,-z+1/4
-y,x,-z
-x+3/4,y-1/4,z+1/4
-y,-x,z
x+3/4,-y+1/4,z+3/4
y+1/2,x,z+1/2
-z+3/4,-x+1/4,-y+3/4
x+1/2,-z,-y+1/2
z+3/4,x-1/4,-y+1/4
-x,z,-y
-z+3/4,x-1/4,y+1/4
-x,-z,y
z+3/4,-x+1/4,y+3/4
x+1/2,z,y+1/2
-y+3/4,-z+1/4,-x+3/4
-y+1/4,z+1/4,x+1/4
-z+1/2,-y-1/2,x
y+1/4,-z-1/4,x+3/4
z+1/2,y-1/2,x
y+1/4,z-1/4,-x+3/4
-z+1/2,y,-x+1/2
z,-y,-x
x+1/2,y+1/2,z
-y+3/4,x+3/4,z+1/4
-x+1/2,-y+1,z+1/2
y+5/4,-x+3/4,z+3/4
x+1/2,-y+1,-z+1/2
y+5/4,x+3/4,-z+3/4
-x+1/2,y+1/2,-z
-y+3/4,-x+3/4,-z+1/4
z+1/2,x+1/2,y
-x+3/4,z+3/4,y+1/4
-z+1/2,-x+1,y+1/2
x+5/4,-z+3/4,y+3/4
z+1/2,-x+1,-y+1/2
x+5/4,z+3/4,-y+3/4
-z+1/2,x+1/2,-y
-x+3/4,-z+3/4,-y+1/4
y+1/2,z+1/2,x
y+1,-z+1/2,-x+1/2
z+3/4,y+5/4,-x+3/4
-y+1,z+1,-x
-z+3/4,-y+5/4,-x+3/4
-y+1,-z+1,x
z+3/4,-y+3/4,x+1/4
-z+5/4,y+3/4,x+3/4
-x+3/4,-y+3/4,-z+1/4
y+1/2,-x+1/2,-z
x+3/4,y+1/4,-z-1/4
-y,x+1/2,-z-1/2
-x+3/4,y+1/4,z-1/4
-y,-x+1/2,z-1/2
x+3/4,-y+3/4,z+1/4
y+1/2,x+1/2,z
-z+3/4,-x+3/4,-y+1/4
x+1/2,-z+1/2,-y
z+3/4,x+1/4,-y-1/4
-x,z+1/2,-y-1/2
-z+3/4,x+1/4,y-1/4
-x,-z+1/2,y-1/2
z+3/4,-x+3/4,y+1/4
x+1/2,z+1/2,y
-y+3/4,-z+3/4,-x+1/4
-y+1/4,z+3/4,x-1/4
-z+1/2,-y,x-1/2
y+1/4,-z+1/4,x+1/4
z+1/2,y,x-1/2
y+1/4,z+1/4,-x+1/4
-z+1/2,y+1/2,-x
z,-y+1/2,-x-1/2
loop_
_atom_site_label
_atom_site_type_symbol
_atom_site_fract_x
_atom_site_fract_y
_atom_site_fract_z
_atom_site_occupancy
_atom_site_U_iso_or_equiv
Ni1 Ni+2 0 0 0 0.02 0.0
Ni2 Ni+2 0.625 0.625 0.625 0.64 0.0
Fe1 Fe+3 0 0 0 0.944 0.0
Sn1 Sn+4 0 0 0 0.036 0.0
Sn2 Sn+4 0.625 0.625 0.625 0.132 0.0
O1 O-2 0.38 0.38 0.38 1 0.0
Fe2 Fe+3 0.625 0.625 0.625 0.228 0.0
