#------------------------------------------------------------------------------
#$Date: 2016-02-13 21:28:24 +0200 (Sat, 13 Feb 2016) $
#$Revision: 176429 $
#$URL: svn://www.crystallography.net/cod/cif/1/53/62/1536284.cif $
#------------------------------------------------------------------------------
#
# This file is available in the Crystallography Open Database (COD),
# http://www.crystallography.net/
#
# All data on this site have been placed in the public domain by the
# contributors.
#
data_1536284
loop_
_publ_author_name
'Davis, M.J.'
'Mugavero, S.J.'
'Glab, K.I.'
'Smith, M.D.'
'zur Loye, H.C.'
_publ_section_title
;
 The crystal growth and characterization of the lanthanide-containing
 double perovskites Ln2 Na Ir O6 (Ln= La, Pr, Nd).
;
_journal_name_full               'Solid State Sciences'
_journal_page_first              413
_journal_page_last               417
_journal_volume                  6
_journal_year                    2004
_chemical_formula_sum            'Ir Na Nd2 O6'
_chemical_name_systematic        'Nd2 Na Ir O6'
_space_group_IT_number           14
_symmetry_space_group_name_Hall  '-P 2yn'
_symmetry_space_group_name_H-M   'P 1 21/n 1'
_cell_angle_alpha                90
_cell_angle_beta                 90.946
_cell_angle_gamma                90
_cell_formula_units_Z            2
_cell_length_a                   5.506
_cell_length_b                   5.9228
_cell_length_c                   7.9131
_cell_volume                     258.018
_citation_journal_id_ASTM        SSSCFJ
_cod_data_source_file            Davis_SSSCFJ_2004_1342.cif
_cod_data_source_block           Ir1Na1Nd2O6
_cod_original_cell_volume        258.0184
_cod_original_sg_symbol_Hall     '-P 2ybc (x-z,y,z)'
_cod_original_formula_sum        'Ir1 Na1 Nd2 O6'
_cod_database_code               1536284
loop_
_symmetry_equiv_pos_as_xyz
x,y,z
-x+1/2,y+1/2,-z+1/2
-x,-y,-z
x-1/2,-y-1/2,z-1/2
loop_
_atom_site_label
_atom_site_type_symbol
_atom_site_fract_x
_atom_site_fract_y
_atom_site_fract_z
_atom_site_occupancy
_atom_site_U_iso_or_equiv
Ir1 Ir+5 0.5 0.5 0 1 0.0
O1 O-2 0.2055 0.3268 0.0519 1 0.0
O3 O-2 0.3372 0.7823 0.0674 1 0.0
Na1 Na+1 0 0 0 1 0.0
O2 O-2 0.6185 0.45 0.2317 1 0.0
Nd1 Nd+3 0.48002 0.07154 0.25288 1 0.0
