#------------------------------------------------------------------------------
#$Date: 2015-10-10 07:25:06 +0300 (Sat, 10 Oct 2015) $
#$Revision: 164932 $
#$URL: svn://www.crystallography.net/cod/cif/1/53/70/1537002.cif $
#------------------------------------------------------------------------------
#
# This file is available in the Crystallography Open Database (COD),
# http://www.crystallography.net/
#
# All data on this site have been placed in the public domain by the
# contributors.
#
data_1537002
loop_
_publ_author_name
'Red'ko, V.P.'
'Lopato, L.M.'
_publ_section_title
;
 Crystal structure of M4Zr3O12 and M4Hf3O12 compounds (M-rare earth)
;
_journal_name_full
'Izvestiya Akademii Nauk SSSR, Neorganicheskie Materialy'
_journal_page_first              1905
_journal_page_last               1910
_journal_volume                  27
_journal_year                    1991
_chemical_formula_sum            'Hf3 O12 Sc4'
_chemical_name_systematic        'Sc4 Hf3 O12'
_space_group_IT_number           148
_symmetry_space_group_name_Hall  '-R 3'
_symmetry_space_group_name_H-M   'R -3 :H'
_cell_angle_alpha                90
_cell_angle_beta                 90
_cell_angle_gamma                120
_cell_formula_units_Z            3
_cell_length_a                   9.3694
_cell_length_b                   9.3694
_cell_length_c                   8.692
_cell_volume                     660.806
_citation_journal_id_ASTM        IVNMAW
_cod_data_source_file            Redko_IVNMAW_1991_1187.cif
_cod_data_source_block           Hf3O12Sc4
_cod_original_cell_volume        660.8059
_cod_database_code               1537002
loop_
_symmetry_equiv_pos_as_xyz
x,y,z
-y,x-y,z
-x+y,-x,z
-x,-y,-z
y,-x+y,-z
x-y,x,-z
x+2/3,y+1/3,z+1/3
-y+2/3,x-y+1/3,z+1/3
-x+y+2/3,-x+1/3,z+1/3
-x+2/3,-y+1/3,-z+1/3
y+2/3,-x+y+1/3,-z+1/3
x-y+2/3,x+1/3,-z+1/3
x+1/3,y+2/3,z+2/3
-y+1/3,x-y+2/3,z+2/3
-x+y+1/3,-x+2/3,z+2/3
-x+1/3,-y+2/3,-z+2/3
y+1/3,-x+y+2/3,-z+2/3
x-y+1/3,x+2/3,-z+2/3
loop_
_atom_site_label
_atom_site_type_symbol
_atom_site_fract_x
_atom_site_fract_y
_atom_site_fract_z
_atom_site_occupancy
_atom_site_U_iso_or_equiv
O2 O-2 0.309 0.441 0.269 1 0.0
O1 O-2 0.306 0.459 -0.224 1 0.0
Sc2 Sc+3 0.2894 0.4084 0.0179 0.605 0.0
Hf1 Hf+4 0 0 0 0.63 0.0
Sc1 Sc+3 0 0 0 0.37 0.0
Hf2 Hf+4 0.2894 0.4084 0.0179 0.395 0.0
