#------------------------------------------------------------------------------
#$Date: 2016-02-13 21:28:24 +0200 (Sat, 13 Feb 2016) $
#$Revision: 176429 $
#$URL: svn://www.crystallography.net/cod/cif/1/53/75/1537537.cif $
#------------------------------------------------------------------------------
#
# This file is available in the Crystallography Open Database (COD),
# http://www.crystallography.net/
#
# All data on this site have been placed in the public domain by the
# contributors.
#
data_1537537
loop_
_publ_author_name
'Kokh, A.E.'
'Kononova, N.G.'
'Maksimov, B.A.'
'Bekker, T.B.'
'Kuznetsov, S.V.'
'Furmanova, N.G.'
'Bolotina, N.B.'
'Sul'yanov, S.N.'
'Tkachenko, E.A.'
'Fedorov, P.P.'
'Sobol', A.A.'
'Kargin, Yu.F.'
_publ_section_title
;
 New sodium barium orthoborate Na Ba4 (B O3)3
;
_journal_name_full               'Zhurnal Neorganicheskoi Khimii'
_journal_page_first              1078
_journal_page_last               1082
_journal_volume                  49
_journal_year                    2004
_chemical_formula_sum            'B3 Ba4 Na O9'
_chemical_name_systematic        'Na Ba4 (B O3)3'
_space_group_IT_number           230
_symmetry_space_group_name_Hall  '-I 4bd 2c 3'
_symmetry_space_group_name_H-M   'I a -3 d'
_cell_angle_alpha                90
_cell_angle_beta                 90
_cell_angle_gamma                90
_cell_formula_units_Z            16
_cell_length_a                   15.783
_cell_length_b                   15.783
_cell_length_c                   15.783
_cell_volume                     3931.594
_citation_journal_id_ASTM        ZNOKAQ
_cod_data_source_file            Kokh_ZNOKAQ_2004_561.cif
_cod_data_source_block           B3Ba4Na1O9
_cod_original_formula_sum        'B3 Ba4 Na1 O9'
_cod_database_code               1537537
loop_
_symmetry_equiv_pos_as_xyz
x,y,z
-y+1/4,x+3/4,z+1/4
-x+1/2,-y,z+1/2
y+1/4,-x+1/4,z+3/4
x,-y,-z+1/2
y+1/4,x+3/4,-z+3/4
-x+1/2,y,-z
-y+1/4,-x+1/4,-z+1/4
z,x,y
-x+1/4,z+3/4,y+1/4
-z+1/2,-x,y+1/2
x+1/4,-z+1/4,y+3/4
z,-x,-y+1/2
x+1/4,z+3/4,-y+3/4
-z+1/2,x,-y
-x+1/4,-z+1/4,-y+1/4
y,z,x
y+1/2,-z+1/2,-x
z+3/4,y+1/4,-x+1/4
-y,z+1/2,-x+1/2
-z+1/4,-y+1/4,-x+1/4
-y+1/2,-z,x+1/2
z+3/4,-y+3/4,x+1/4
-z+3/4,y+1/4,x+3/4
-x,-y,-z
y-1/4,-x-3/4,-z-1/4
x-1/2,y,-z-1/2
-y-1/4,x-1/4,-z-3/4
-x,y,z-1/2
-y-1/4,-x-3/4,z-3/4
x-1/2,-y,z
y-1/4,x-1/4,z-1/4
-z,-x,-y
x-1/4,-z-3/4,-y-1/4
z-1/2,x,-y-1/2
-x-1/4,z-1/4,-y-3/4
-z,x,y-1/2
-x-1/4,-z-3/4,y-3/4
z-1/2,-x,y
x-1/4,z-1/4,y-1/4
-y,-z,-x
-y-1/2,z-1/2,x
-z-3/4,-y-1/4,x-1/4
y,-z-1/2,x-1/2
z-1/4,y-1/4,x-1/4
y-1/2,z,-x-1/2
-z-3/4,y-3/4,-x-1/4
z-3/4,-y-1/4,-x-3/4
x+1/2,y+1/2,z+1/2
-y+3/4,x+5/4,z+3/4
-x+1,-y+1/2,z+1
y+3/4,-x+3/4,z+5/4
x+1/2,-y+1/2,-z+1
y+3/4,x+5/4,-z+5/4
-x+1,y+1/2,-z+1/2
-y+3/4,-x+3/4,-z+3/4
z+1/2,x+1/2,y+1/2
-x+3/4,z+5/4,y+3/4
-z+1,-x+1/2,y+1
x+3/4,-z+3/4,y+5/4
z+1/2,-x+1/2,-y+1
x+3/4,z+5/4,-y+5/4
-z+1,x+1/2,-y+1/2
-x+3/4,-z+3/4,-y+3/4
y+1/2,z+1/2,x+1/2
y+1,-z+1,-x+1/2
z+5/4,y+3/4,-x+3/4
-y+1/2,z+1,-x+1
-z+3/4,-y+3/4,-x+3/4
-y+1,-z+1/2,x+1
z+5/4,-y+5/4,x+3/4
-z+5/4,y+3/4,x+5/4
-x+1/2,-y+1/2,-z+1/2
y+1/4,-x-1/4,-z+1/4
x,y+1/2,-z
-y+1/4,x+1/4,-z-1/4
-x+1/2,y+1/2,z
-y+1/4,-x-1/4,z-1/4
x,-y+1/2,z+1/2
y+1/4,x+1/4,z+1/4
-z+1/2,-x+1/2,-y+1/2
x+1/4,-z-1/4,-y+1/4
z,x+1/2,-y
-x+1/4,z+1/4,-y-1/4
-z+1/2,x+1/2,y
-x+1/4,-z-1/4,y-1/4
z,-x+1/2,y+1/2
x+1/4,z+1/4,y+1/4
-y+1/2,-z+1/2,-x+1/2
-y,z,x+1/2
-z-1/4,-y+1/4,x+1/4
y+1/2,-z,x
z+1/4,y+1/4,x+1/4
y,z+1/2,-x
-z-1/4,y-1/4,-x+1/4
z-1/4,-y+1/4,-x-1/4
loop_
_atom_site_label
_atom_site_type_symbol
_atom_site_fract_x
_atom_site_fract_y
_atom_site_fract_z
_atom_site_occupancy
_atom_site_U_iso_or_equiv
Ba2 Ba+2 0 0 0 1 0.0
O1 O-2 0.37251 0.37098 0.22676 1 0.0
B1 B+3 0.625 0.1082 0.1418 1 0.0
O2 O-2 0.625 0.16928 0.08072 1 0.0
Na1 Na+1 0.875 0.875 0.875 1 0.0
Ba1 Ba+2 -0.0024 0 0.25 1 0.0
