#------------------------------------------------------------------------------
#$Date: 2016-02-13 21:28:24 +0200 (Sat, 13 Feb 2016) $
#$Revision: 176429 $
#$URL: svn://www.crystallography.net/cod/cif/1/53/78/1537890.cif $
#------------------------------------------------------------------------------
#
# This file is available in the Crystallography Open Database (COD),
# http://www.crystallography.net/
#
# All data on this site have been placed in the public domain by the
# contributors.
#
data_1537890
loop_
_publ_author_name
'Dyuzheva, T.I.'
'Kabalkina, S.S.'
'Bendeliani, N.A.'
_publ_section_title
;
 Compressibility and polymorphism of Re O3 at pressures up to 30 GPa
;
_journal_name_full               'Doklady Akademii Nauk SSSR'
_journal_page_first              100
_journal_page_last               102
_journal_volume                  298
_journal_year                    1988
_chemical_formula_sum            'O3 Re'
_chemical_name_systematic        'Re O3'
_space_group_IT_number           221
_symmetry_space_group_name_Hall  '-P 4 2 3'
_symmetry_space_group_name_H-M   'P m -3 m'
_cell_angle_alpha                90
_cell_angle_beta                 90
_cell_angle_gamma                90
_cell_formula_units_Z            1
_cell_length_a                   3.748
_cell_length_b                   3.748
_cell_length_c                   3.748
_cell_volume                     52.650
_citation_journal_id_ASTM        DANKAS
_cod_data_source_file            Dyuzheva_DANKAS_1988_1174.cif
_cod_data_source_block           O3Re1
_cod_original_cell_volume        52.65004
_cod_original_formula_sum        'O3 Re1'
_cod_database_code               1537890
loop_
_symmetry_equiv_pos_as_xyz
x,y,z
-y,x,z
-x,-y,z
y,-x,z
x,-y,-z
y,x,-z
-x,y,-z
-y,-x,-z
z,x,y
-x,z,y
-z,-x,y
x,-z,y
z,-x,-y
x,z,-y
-z,x,-y
-x,-z,-y
y,z,x
y,-z,-x
z,y,-x
-y,z,-x
-z,-y,-x
-y,-z,x
z,-y,x
-z,y,x
-x,-y,-z
y,-x,-z
x,y,-z
-y,x,-z
-x,y,z
-y,-x,z
x,-y,z
y,x,z
-z,-x,-y
x,-z,-y
z,x,-y
-x,z,-y
-z,x,y
-x,-z,y
z,-x,y
x,z,y
-y,-z,-x
-y,z,x
-z,-y,x
y,-z,x
z,y,x
y,z,-x
-z,y,-x
z,-y,-x
loop_
_atom_site_label
_atom_site_type_symbol
_atom_site_fract_x
_atom_site_fract_y
_atom_site_fract_z
_atom_site_occupancy
_atom_site_U_iso_or_equiv
Re1 Re+6 0 0 0 1 0.0
O1 O-2 0.5 0 0 1 0.0
