#------------------------------------------------------------------------------
#$Date: 2018-09-27 07:13:35 +0300 (Thu, 27 Sep 2018) $
#$Revision: 211196 $
#$URL: file:///home/coder/svn-repositories/cod/cif/1/53/73/1537363.cif $
#------------------------------------------------------------------------------
#
# This file is available in the Crystallography Open Database (COD),
# http://www.crystallography.net/
#
# All data on this site have been placed in the public domain by the
# contributors.
#
data_1537363
loop_
_publ_author_name
'Hahn, H.'
'de Lorent, C.'
_publ_section_title
;
 Versuche zur Darstellung ternaerer Oxyde des Aluminiums, Galliums und
 Indiums mit einwertigem Kupfer und Silber
;
_journal_name_full
'Zeitschrift fuer Anorganische und Allgemeine Chemie'
_journal_page_first              281
_journal_page_last               288
_journal_volume                  279
_journal_year                    1955
_chemical_formula_sum            'Cu Ga O2'
_space_group_IT_number           166
_symmetry_space_group_name_Hall  '-P 3* 2'
_symmetry_space_group_name_H-M   'R -3 m :R'
_cell_angle_alpha                29.4
_cell_angle_beta                 29.4
_cell_angle_gamma                29.4
_cell_formula_units_Z            1
_cell_length_a                   5.966
_cell_length_b                   5.966
_cell_length_c                   5.966
_cell_volume                     45.288
_citation_journal_id_ASTM        ZAACAB
_cod_data_source_file            Hahn_ZAACAB_1955_833.cif
_cod_data_source_block           Cu1Ga1O2
_cod_original_cell_volume        45.28836
_cod_original_sg_symbol_Hall     '-R 3 2" (-y+z,x+z,-x+y+z)'
_cod_original_formula_sum        'Cu1 Ga1 O2'
_cod_database_code               1537363
loop_
_symmetry_equiv_pos_as_xyz
x,y,z
z,x,y
y,z,x
-y,-x,-z
-z,-y,-x
-x,-z,-y
-x,-y,-z
-z,-x,-y
-y,-z,-x
y,x,z
z,y,x
x,z,y
loop_
_atom_site_label
_atom_site_type_symbol
_atom_site_fract_x
_atom_site_fract_y
_atom_site_fract_z
_atom_site_occupancy
_atom_site_U_iso_or_equiv
Ga1 Ga+3 0.5 0.5 0.5 1 0.0
O1 O-2 0.11 0.11 0.11 1 0.0
Cu1 Cu+1 0 0 0 1 0.0
