#------------------------------------------------------------------------------
#$Date: 2016-02-13 14:50:18 +0200 (Sat, 13 Feb 2016) $
#$Revision: 176428 $
#$URL: svn://www.crystallography.net/cod/cif/1/53/79/1537910.cif $
#------------------------------------------------------------------------------
#
# This file is available in the Crystallography Open Database (COD),
# http://www.crystallography.net/
#
# All data on this site have been placed in the public domain by the
# contributors.
#
data_1537910
loop_
_publ_author_name
'Brown, G.E.'
'Prewitt, C.T.'
_publ_section_title
;
 High-temperature crystal chemistry of hortonolite
;
_journal_name_full               'American Mineralogist'
_journal_page_first              577
_journal_page_last               587
_journal_volume                  58
_journal_year                    1973
_chemical_formula_sum            'Al0.01 Ca0.01 Fe0.35 Mg1.64 O4 Si0.99'
_chemical_name_systematic        '(Mg1.64 Fe.35 Ca.01) (Si.99 Al.01) O4'
_space_group_IT_number           62
_symmetry_space_group_name_Hall  '-P 2c 2ab'
_symmetry_space_group_name_H-M   'P b n m'
_cell_angle_alpha                90
_cell_angle_beta                 90
_cell_angle_gamma                90
_cell_formula_units_Z            4
_cell_length_a                   4.771
_cell_length_b                   10.274
_cell_length_c                   6.011
_cell_volume                     294.643
_citation_journal_id_ASTM        AMMIAY
_cod_data_source_file            Brown_AMMIAY_1973_1419.cif
_cod_data_source_block           Al0.01Ca0.01Fe0.35Mg1.64O4Si0.99
_cod_original_cell_volume        294.6427
_cod_original_sg_symbol_Hall     '-P 2ac 2n (z,x,y)'
_cod_database_code               1537910
loop_
_symmetry_equiv_pos_as_xyz
x,y,z
x+1/2,-y+1/2,-z
-x+1/2,y+1/2,-z+1/2
-x,-y,z+1/2
-x,-y,-z
-x-1/2,y-1/2,z
x-1/2,-y-1/2,z-1/2
x,y,-z-1/2
loop_
_atom_site_label
_atom_site_type_symbol
_atom_site_fract_x
_atom_site_fract_y
_atom_site_fract_z
_atom_site_occupancy
_atom_site_U_iso_or_equiv
O2 O-2 0.2194 0.4482 0.25 1 0.0
Fe2 Fe+2 0.9888 0.2778 0.25 0.164 0.0
Mg1 Mg+2 0 0 0 0.814 0.0
Fe1 Fe+2 0 0 0 0.186 0.0
Si1 Si+4 0.427 0.0946 0.25 0.99 0.0
Al1 Al+3 0.427 0.0946 0.25 0.01 0.0
O1 O-2 0.7661 0.0918 0.25 1 0.0
O3 O-2 0.2795 0.1634 0.0336 1 0.0
Ca1 Ca+2 0.9888 0.2778 0.25 0.01 0.0
Mg2 Mg+2 0.9888 0.2778 0.25 0.826 0.0
