#------------------------------------------------------------------------------
#$Date: 2018-09-27 07:13:35 +0300 (Thu, 27 Sep 2018) $
#$Revision: 211196 $
#$URL: file:///home/coder/svn-repositories/cod/cif/1/53/78/1537846.cif $
#------------------------------------------------------------------------------
#
# This file is available in the Crystallography Open Database (COD),
# http://www.crystallography.net/
#
# All data on this site have been placed in the public domain by the
# contributors.
#
data_1537846
loop_
_publ_author_name
'Bommer, H.'
_publ_section_title
;
 Die Gitterkonstanten der C-Formen der Oxyde der seltenen Erdmetalle
;
_journal_name_full
'Zeitschrift fuer Anorganische und Allgemeine Chemie'
_journal_page_first              273
_journal_page_last               273
_journal_volume                  241
_journal_year                    1939
_chemical_formula_sum            'Nd2 O3'
_space_group_IT_number           206
_symmetry_space_group_name_Hall  '-I 2b 2c 3'
_symmetry_space_group_name_H-M   'I a -3'
_cell_angle_alpha                90
_cell_angle_beta                 90
_cell_angle_gamma                90
_cell_formula_units_Z            16
_cell_length_a                   11.072
_cell_length_b                   11.072
_cell_length_c                   11.072
_cell_volume                     1357.307
_citation_journal_id_ASTM        ZAACAB
_cod_data_source_file            Bommer_ZAACAB_1939_885.cif
_cod_data_source_block           Nd2O3
_cod_database_code               1537846
loop_
_symmetry_equiv_pos_as_xyz
x,y,z
-x,-y+1/2,z
x,-y,-z+1/2
-x,y+1/2,-z+1/2
z,x,y
-z,-x+1/2,y
z,-x,-y+1/2
-z,x+1/2,-y+1/2
y,z,x
y,-z,-x+1/2
-y,z+1/2,-x+1/2
-y+1/2,-z,x+1/2
-x,-y,-z
x,y-1/2,-z
-x,y,z-1/2
x,-y-1/2,z-1/2
-z,-x,-y
z,x-1/2,-y
-z,x,y-1/2
z,-x-1/2,y-1/2
-y,-z,-x
-y,z,x-1/2
y,-z-1/2,x-1/2
y-1/2,z,-x-1/2
x+1/2,y+1/2,z+1/2
-x+1/2,-y+1,z+1/2
x+1/2,-y+1/2,-z+1
-x+1/2,y+1,-z+1
z+1/2,x+1/2,y+1/2
-z+1/2,-x+1,y+1/2
z+1/2,-x+1/2,-y+1
-z+1/2,x+1,-y+1
y+1/2,z+1/2,x+1/2
y+1/2,-z+1/2,-x+1
-y+1/2,z+1,-x+1
-y+1,-z+1/2,x+1
-x+1/2,-y+1/2,-z+1/2
x+1/2,y,-z+1/2
-x+1/2,y+1/2,z
x+1/2,-y,z
-z+1/2,-x+1/2,-y+1/2
z+1/2,x,-y+1/2
-z+1/2,x+1/2,y
z+1/2,-x,y
-y+1/2,-z+1/2,-x+1/2
-y+1/2,z+1/2,x
y+1/2,-z,x
y,z+1/2,-x
loop_
_atom_site_label
_atom_site_type_symbol
_atom_site_fract_x
_atom_site_fract_y
_atom_site_fract_z
_atom_site_occupancy
_atom_site_U_iso_or_equiv
Nd1 Nd 0.25 0.25 0.25 1 0.0
Nd2 Nd 0.97 0 0.25 1 0.0
O1 O 0.385 0.145 0.38 1 0.0
