#------------------------------------------------------------------------------
#$Date: 2016-02-13 21:28:24 +0200 (Sat, 13 Feb 2016) $
#$Revision: 176429 $
#$URL: svn://www.crystallography.net/cod/cif/1/53/75/1537565.cif $
#------------------------------------------------------------------------------
#
# This file is available in the Crystallography Open Database (COD),
# http://www.crystallography.net/
#
# All data on this site have been placed in the public domain by the
# contributors.
#
data_1537565
loop_
_publ_author_name
'Kuz'micheva, G.M.'
'Kokunova, V.N.'
'Mitin, A.V.'
'Andreenko, A.S.'
'Kostyleva, I.E.'
'Khlybov, E.P.'
_publ_section_title
;
 Perovskite-like phases based on ruthenium: synthesis, structure,
 properties
;
_journal_name_full
'Zhurnal Strukturnoi Khimii (Issue-No. from 1981)'
_journal_page_first              246
_journal_page_last               267
_journal_volume                  45
_journal_year                    2004
_chemical_formula_sum            'La0.16 O3 Ru Sr0.84'
_chemical_name_systematic        '(Sr0.84 La0.16) (Ru O3)'
_space_group_IT_number           221
_symmetry_space_group_name_Hall  '-P 4 2 3'
_symmetry_space_group_name_H-M   'P m -3 m'
_cell_angle_alpha                90
_cell_angle_beta                 90
_cell_angle_gamma                90
_cell_formula_units_Z            1
_cell_length_a                   3.9283
_cell_length_b                   3.9283
_cell_length_c                   3.9283
_cell_volume                     60.620
_citation_journal_id_ASTM        ZSTKAI
_cod_data_source_file            Kuzmicheva_ZSTKAI_2004_550.cif
_cod_data_source_block           La0.16O3Ru1Sr0.84
_cod_original_cell_volume        60.61972
_cod_original_formula_sum        'La0.16 O3 Ru1 Sr0.84'
_cod_database_code               1537565
loop_
_symmetry_equiv_pos_as_xyz
x,y,z
-y,x,z
-x,-y,z
y,-x,z
x,-y,-z
y,x,-z
-x,y,-z
-y,-x,-z
z,x,y
-x,z,y
-z,-x,y
x,-z,y
z,-x,-y
x,z,-y
-z,x,-y
-x,-z,-y
y,z,x
y,-z,-x
z,y,-x
-y,z,-x
-z,-y,-x
-y,-z,x
z,-y,x
-z,y,x
-x,-y,-z
y,-x,-z
x,y,-z
-y,x,-z
-x,y,z
-y,-x,z
x,-y,z
y,x,z
-z,-x,-y
x,-z,-y
z,x,-y
-x,z,-y
-z,x,y
-x,-z,y
z,-x,y
x,z,y
-y,-z,-x
-y,z,x
-z,-y,x
y,-z,x
z,y,x
y,z,-x
-z,y,-x
z,-y,-x
loop_
_atom_site_label
_atom_site_type_symbol
_atom_site_fract_x
_atom_site_fract_y
_atom_site_fract_z
_atom_site_occupancy
_atom_site_U_iso_or_equiv
Sr1 Sr+2 0.5 0.5 0.5 0.84 0.0
O1 O-2 0.5 0 0 1 0.0
La1 La+3 0.5 0.5 0.5 0.16 0.0
Ru1 Ru+3 0 0 0 1 0.0
