#------------------------------------------------------------------------------
#$Date: 2015-10-10 08:02:29 +0300 (Sat, 10 Oct 2015) $
#$Revision: 165080 $
#$URL: svn://www.crystallography.net/cod/cif/1/53/70/1537080.cif $
#------------------------------------------------------------------------------
#
# This file is available in the Crystallography Open Database (COD),
# http://www.crystallography.net/
#
# All data on this site have been placed in the public domain by the
# contributors.
#
data_1537080
loop_
_publ_author_name
'Frank-Kamenetskaya, O.V.'
'Rozhdestvenskaya, I.V.'
'Kaminskaya, T.N.'
'Bannova, I.I.'
'Kostitsyna, A.V.'
'Gordienko, V.V.'
_publ_section_title
;
 Dissymmetrization of crystal structures of sodium pollucites
;
_journal_name_full               Kristallografiya
_journal_page_first              698
_journal_page_last               707
_journal_volume                  40
_journal_year                    1995
_chemical_formula_sum            'Cs0.72 O0.28'
_chemical_name_systematic        'Cs0.72 Na0.15 (Al0.81 Si2.19 O6) (H2 O)0.28'
_space_group_IT_number           230
_symmetry_space_group_name_Hall  '-I 4bd 2c 3'
_symmetry_space_group_name_H-M   'I a -3 d'
_cell_angle_alpha                90
_cell_angle_beta                 90
_cell_angle_gamma                90
_cell_formula_units_Z            16
_cell_length_a                   13.679
_cell_length_b                   13.679
_cell_length_c                   13.679
_cell_volume                     2559.547
_citation_journal_id_ASTM        KRISAJ
_cod_data_source_file            Frank-Kamenetskaya_KRISAJ_1995_1498.cif
_cod_data_source_block           Cs0.72O0.28
_cod_database_code               1537080
loop_
_symmetry_equiv_pos_as_xyz
x,y,z
-y+1/4,x+3/4,z+1/4
-x+1/2,-y,z+1/2
y+1/4,-x+1/4,z+3/4
x,-y,-z+1/2
y+1/4,x+3/4,-z+3/4
-x+1/2,y,-z
-y+1/4,-x+1/4,-z+1/4
z,x,y
-x+1/4,z+3/4,y+1/4
-z+1/2,-x,y+1/2
x+1/4,-z+1/4,y+3/4
z,-x,-y+1/2
x+1/4,z+3/4,-y+3/4
-z+1/2,x,-y
-x+1/4,-z+1/4,-y+1/4
y,z,x
y+1/2,-z+1/2,-x
z+3/4,y+1/4,-x+1/4
-y,z+1/2,-x+1/2
-z+1/4,-y+1/4,-x+1/4
-y+1/2,-z,x+1/2
z+3/4,-y+3/4,x+1/4
-z+3/4,y+1/4,x+3/4
-x,-y,-z
y-1/4,-x-3/4,-z-1/4
x-1/2,y,-z-1/2
-y-1/4,x-1/4,-z-3/4
-x,y,z-1/2
-y-1/4,-x-3/4,z-3/4
x-1/2,-y,z
y-1/4,x-1/4,z-1/4
-z,-x,-y
x-1/4,-z-3/4,-y-1/4
z-1/2,x,-y-1/2
-x-1/4,z-1/4,-y-3/4
-z,x,y-1/2
-x-1/4,-z-3/4,y-3/4
z-1/2,-x,y
x-1/4,z-1/4,y-1/4
-y,-z,-x
-y-1/2,z-1/2,x
-z-3/4,-y-1/4,x-1/4
y,-z-1/2,x-1/2
z-1/4,y-1/4,x-1/4
y-1/2,z,-x-1/2
-z-3/4,y-3/4,-x-1/4
z-3/4,-y-1/4,-x-3/4
x+1/2,y+1/2,z+1/2
-y+3/4,x+5/4,z+3/4
-x+1,-y+1/2,z+1
y+3/4,-x+3/4,z+5/4
x+1/2,-y+1/2,-z+1
y+3/4,x+5/4,-z+5/4
-x+1,y+1/2,-z+1/2
-y+3/4,-x+3/4,-z+3/4
z+1/2,x+1/2,y+1/2
-x+3/4,z+5/4,y+3/4
-z+1,-x+1/2,y+1
x+3/4,-z+3/4,y+5/4
z+1/2,-x+1/2,-y+1
x+3/4,z+5/4,-y+5/4
-z+1,x+1/2,-y+1/2
-x+3/4,-z+3/4,-y+3/4
y+1/2,z+1/2,x+1/2
y+1,-z+1,-x+1/2
z+5/4,y+3/4,-x+3/4
-y+1/2,z+1,-x+1
-z+3/4,-y+3/4,-x+3/4
-y+1,-z+1/2,x+1
z+5/4,-y+5/4,x+3/4
-z+5/4,y+3/4,x+5/4
-x+1/2,-y+1/2,-z+1/2
y+1/4,-x-1/4,-z+1/4
x,y+1/2,-z
-y+1/4,x+1/4,-z-1/4
-x+1/2,y+1/2,z
-y+1/4,-x-1/4,z-1/4
x,-y+1/2,z+1/2
y+1/4,x+1/4,z+1/4
-z+1/2,-x+1/2,-y+1/2
x+1/4,-z-1/4,-y+1/4
z,x+1/2,-y
-x+1/4,z+1/4,-y-1/4
-z+1/2,x+1/2,y
-x+1/4,-z-1/4,y-1/4
z,-x+1/2,y+1/2
x+1/4,z+1/4,y+1/4
-y+1/2,-z+1/2,-x+1/2
-y,z,x+1/2
-z-1/4,-y+1/4,x+1/4
y+1/2,-z,x
z+1/4,y+1/4,x+1/4
y,z+1/2,-x
-z-1/4,y-1/4,-x+1/4
z-1/4,-y+1/4,-x-1/4
loop_
_atom_site_label
_atom_site_type_symbol
_atom_site_fract_x
_atom_site_fract_y
_atom_site_fract_z
_atom_site_occupancy
_atom_site_U_iso_or_equiv
Cs1 Cs+1 0.125 0.125 0.125 0.72 0.0
O1 O-2 0.125 0.125 0.125 0.28 0.0
