#------------------------------------------------------------------------------
#$Date: 2015-10-12 20:42:43 +0300 (Mon, 12 Oct 2015) $
#$Revision: 166573 $
#$URL: svn://www.crystallography.net/cod/cif/1/53/81/1538146.cif $
#------------------------------------------------------------------------------
#
# This file is available in the Crystallography Open Database (COD),
# http://www.crystallography.net/
#
# All data on this site have been placed in the public domain by the
# contributors.
#
data_1538146
loop_
_publ_author_name
'Goldschmidt, V.M.'
_publ_section_title
;
 Geochemische Verteilungsgesetze der Elemente.
;
_journal_name_full
;
Skrifter utgitt av det Norske Videnskaps-Akademi i Oslo 1: 
Matematisk-Naturvidenskapelig Klasse
;
_journal_page_first              1
_journal_page_last               1
_journal_volume                  7
_journal_year                    1925
_chemical_formula_sum            'O3 Tl2'
_chemical_name_systematic        'Tl2 O3'
_space_group_IT_number           206
_symmetry_space_group_name_Hall  '-I 2b 2c 3'
_symmetry_space_group_name_H-M   'I a -3'
_cell_angle_alpha                90
_cell_angle_beta                 90
_cell_angle_gamma                90
_cell_formula_units_Z            16
_cell_length_a                   10.59
_cell_length_b                   10.59
_cell_length_c                   10.59
_cell_volume                     1187.648
_citation_journal_id_ASTM        SUNVAQ
_cod_data_source_file            Goldschmidt_SUNVAQ_1925_1208.cif
_cod_data_source_block           O3Tl2
_cod_database_code               1538146
loop_
_symmetry_equiv_pos_as_xyz
x,y,z
-x,-y+1/2,z
x,-y,-z+1/2
-x,y+1/2,-z+1/2
z,x,y
-z,-x+1/2,y
z,-x,-y+1/2
-z,x+1/2,-y+1/2
y,z,x
y,-z,-x+1/2
-y,z+1/2,-x+1/2
-y+1/2,-z,x+1/2
-x,-y,-z
x,y-1/2,-z
-x,y,z-1/2
x,-y-1/2,z-1/2
-z,-x,-y
z,x-1/2,-y
-z,x,y-1/2
z,-x-1/2,y-1/2
-y,-z,-x
-y,z,x-1/2
y,-z-1/2,x-1/2
y-1/2,z,-x-1/2
x+1/2,y+1/2,z+1/2
-x+1/2,-y+1,z+1/2
x+1/2,-y+1/2,-z+1
-x+1/2,y+1,-z+1
z+1/2,x+1/2,y+1/2
-z+1/2,-x+1,y+1/2
z+1/2,-x+1/2,-y+1
-z+1/2,x+1,-y+1
y+1/2,z+1/2,x+1/2
y+1/2,-z+1/2,-x+1
-y+1/2,z+1,-x+1
-y+1,-z+1/2,x+1
-x+1/2,-y+1/2,-z+1/2
x+1/2,y,-z+1/2
-x+1/2,y+1/2,z
x+1/2,-y,z
-z+1/2,-x+1/2,-y+1/2
z+1/2,x,-y+1/2
-z+1/2,x+1/2,y
z+1/2,-x,y
-y+1/2,-z+1/2,-x+1/2
-y+1/2,z+1/2,x
y+1/2,-z,x
y,z+1/2,-x
loop_
_atom_site_label
_atom_site_type_symbol
_atom_site_fract_x
_atom_site_fract_y
_atom_site_fract_z
_atom_site_occupancy
_atom_site_U_iso_or_equiv
Tl2 Tl+3 0.97 0 0.25 1 0.0
Tl1 Tl+3 0.25 0.25 0.25 1 0.0
O1 O-2 0.385 0.145 0.38 1 0.0
