#------------------------------------------------------------------------------
#$Date: 2015-10-13 18:56:56 +0300 (Tue, 13 Oct 2015) $
#$Revision: 167361 $
#$URL: svn://www.crystallography.net/cod/cif/1/53/86/1538685.cif $
#------------------------------------------------------------------------------
#
# This file is available in the Crystallography Open Database (COD),
# http://www.crystallography.net/
#
# All data on this site have been placed in the public domain by the
# contributors.
#
data_1538685
loop_
_publ_author_name
'Kinoshita, K.'
'Matsuda, A.'
'Watanabe, T.'
'Ishii, T.'
'Shibata, H.'
'Yamada, T.'
_publ_section_title
;
 Crystal structure and superconductivity in Ba2 Y1-x Prx Cu3 O7-y
;
_journal_name_full               'Japanese Journal of Applied Physics, Part 2'
_journal_page_first              1642
_journal_page_last               1645
_journal_volume                  27
_journal_year                    1988
_chemical_formula_sum            'Ba1.936 Cu3 O7 Pr0.432 Y0.632'
_chemical_name_systematic        'Ba1.936 Y.632 Pr.432 Cu3 O7'
_space_group_IT_number           47
_symmetry_space_group_name_Hall  '-P 2 2'
_symmetry_space_group_name_H-M   'P m m m'
_cell_angle_alpha                90
_cell_angle_beta                 90
_cell_angle_gamma                90
_cell_formula_units_Z            1
_cell_length_a                   3.832
_cell_length_b                   3.891
_cell_length_c                   11.67
_cell_volume                     174.003
_citation_journal_id_ASTM        JAPLD8
_cod_data_source_file            Kinoshita_JAPLD8_1988_1988.cif
_cod_data_source_block           Ba1.936Cu3O7Pr0.432Y0.632
_cod_original_cell_volume        174.0033
_cod_database_code               1538685
loop_
_symmetry_equiv_pos_as_xyz
x,y,z
-x,-y,z
x,-y,-z
-x,y,-z
-x,-y,-z
x,y,-z
-x,y,z
x,-y,z
loop_
_atom_site_label
_atom_site_type_symbol
_atom_site_fract_x
_atom_site_fract_y
_atom_site_fract_z
_atom_site_occupancy
_atom_site_U_iso_or_equiv
O3 O-2 0 0 0.17 1 0.0
O2 O-2 0 0.5 0 0.94 0.0
Pr1 Pr+3 0.5 0.5 0.182 0.016 0.0
O1 O-2 0.5 0 0 0.06 0.0
O5 O-2 0.5 0 0.4 1 0.0
Pr2 Pr+3 0.5 0.5 0.5 0.4 0.0
Y1 Y+3 0.5 0.5 0.182 0.016 0.0
Y2 Y+3 0.5 0.5 0.5 0.6 0.0
Ba1 Ba+2 0.5 0.5 0.182 0.968 0.0
Cu1 Cu+3 0 0 0 1 0.0
O4 O-2 0 0.5 0.361 1 0.0
Cu2 Cu+2 0 0 0.354 1 0.0
