#------------------------------------------------------------------------------
#$Date: 2016-02-13 21:28:24 +0200 (Sat, 13 Feb 2016) $
#$Revision: 176429 $
#$URL: svn://www.crystallography.net/cod/cif/1/53/82/1538264.cif $
#------------------------------------------------------------------------------
#
# This file is available in the Crystallography Open Database (COD),
# http://www.crystallography.net/
#
# All data on this site have been placed in the public domain by the
# contributors.
#
data_1538264
loop_
_publ_author_name
'Hofmann, R.'
'Hoppe, R.'
_publ_section_title
;
 Ein neues Oxogermanat: Li8 Ge O6 = Li8 O2 (Ge O4) (Mit einer Bemerkung
 ueber Li8 Si O6 und Li4 Ge O4 )
;
_journal_name_full
'Zeitschrift fuer Anorganische und Allgemeine Chemie'
_journal_page_first              118
_journal_page_last               128
_journal_volume                  555
_journal_year                    1987
_chemical_formula_sum            'Li8 O6 Si'
_chemical_name_systematic        'Li8 O2 (Si O4)'
_space_group_IT_number           185
_symmetry_space_group_name_Hall  'P 6c -2'
_symmetry_space_group_name_H-M   'P 63 c m'
_cell_angle_alpha                90
_cell_angle_beta                 90
_cell_angle_gamma                120
_cell_formula_units_Z            2
_cell_length_a                   5.4243
_cell_length_b                   5.4243
_cell_length_c                   10.626
_cell_volume                     270.762
_citation_journal_id_ASTM        ZAACAB
_cod_data_source_file            Hofmann_ZAACAB_1987_1887.cif
_cod_data_source_block           Li8O6Si1
_cod_original_cell_volume        270.7621
_cod_original_formula_sum        'Li8 O6 Si1'
_cod_database_code               1538264
loop_
_symmetry_equiv_pos_as_xyz
x,y,z
x-y,x,z+1/2
-y,x-y,z
-x,-y,z+1/2
-x+y,-x,z
y,-x+y,z+1/2
y,x,z
-x+y,y,z+1/2
-x,-x+y,z
-y,-x,z+1/2
x-y,-y,z
x,x-y,z+1/2
loop_
_atom_site_label
_atom_site_type_symbol
_atom_site_fract_x
_atom_site_fract_y
_atom_site_fract_z
_atom_site_occupancy
_atom_site_U_iso_or_equiv
Li2 Li+1 0.3973 0 0.6284 1 0.0
O1 O-2 0 0 0.1566 1 0.0
O3 O-2 0.2869 0 0.4535 1 0.0
O2 O-2 0.3333 0.6667 0.2192 1 0.0
Li3 Li+1 0.3082 0 0.27 1 0.0
Si1 Si+4 0 0 0 1 0.0
Li1 Li+1 0.3333 0.6667 0.4128 1 0.0
