#------------------------------------------------------------------------------
#$Date: 2016-02-13 21:28:24 +0200 (Sat, 13 Feb 2016) $
#$Revision: 176429 $
#$URL: svn://www.crystallography.net/cod/cif/1/53/82/1538294.cif $
#------------------------------------------------------------------------------
#
# This file is available in the Crystallography Open Database (COD),
# http://www.crystallography.net/
#
# All data on this site have been placed in the public domain by the
# contributors.
#
data_1538294
loop_
_publ_author_name
'Howard, S.A.'
'Yau, J.K.'
'Anderson, H.U.'
_publ_section_title
;
 Structural characteristics of Sr1-x Lax Ti O3+d as a function of oxygen
 partial pressure at 1400 deg. C
;
_journal_name_full               'Journal of Applied Physics'
_journal_page_first              1492
_journal_page_last               1498
_journal_volume                  65
_journal_year                    1989
_chemical_formula_sum            'La0.4 O3 Sr0.6 Ti'
_chemical_name_systematic        'Sr.6 La.4 Ti O3'
_space_group_IT_number           221
_symmetry_space_group_name_Hall  '-P 4 2 3'
_symmetry_space_group_name_H-M   'P m -3 m'
_cell_angle_alpha                90
_cell_angle_beta                 90
_cell_angle_gamma                90
_cell_formula_units_Z            1
_cell_length_a                   3.9056
_cell_length_b                   3.9056
_cell_length_c                   3.9056
_cell_volume                     59.575
_citation_journal_id_ASTM        JAPIAU
_cod_data_source_file            Howard_JAPIAU_1989_1754.cif
_cod_data_source_block           La0.4O3Sr0.6Ti1
_cod_original_cell_volume        59.5749
_cod_original_formula_sum        'La0.4 O3 Sr0.6 Ti1'
_cod_database_code               1538294
loop_
_symmetry_equiv_pos_as_xyz
x,y,z
-y,x,z
-x,-y,z
y,-x,z
x,-y,-z
y,x,-z
-x,y,-z
-y,-x,-z
z,x,y
-x,z,y
-z,-x,y
x,-z,y
z,-x,-y
x,z,-y
-z,x,-y
-x,-z,-y
y,z,x
y,-z,-x
z,y,-x
-y,z,-x
-z,-y,-x
-y,-z,x
z,-y,x
-z,y,x
-x,-y,-z
y,-x,-z
x,y,-z
-y,x,-z
-x,y,z
-y,-x,z
x,-y,z
y,x,z
-z,-x,-y
x,-z,-y
z,x,-y
-x,z,-y
-z,x,y
-x,-z,y
z,-x,y
x,z,y
-y,-z,-x
-y,z,x
-z,-y,x
y,-z,x
z,y,x
y,z,-x
-z,y,-x
z,-y,-x
loop_
_atom_site_label
_atom_site_type_symbol
_atom_site_fract_x
_atom_site_fract_y
_atom_site_fract_z
_atom_site_occupancy
_atom_site_U_iso_or_equiv
Ti1 Ti+3 0.5 0.5 0.5 1 0.0
O1 O-2 0 0.5 0.5 1 0.0
Sr1 Sr+2 0 0 0 0.6 0.0
La1 La+3 0 0 0 0.4 0.0
