#------------------------------------------------------------------------------
#$Date: 2016-02-13 21:28:24 +0200 (Sat, 13 Feb 2016) $
#$Revision: 176429 $
#$URL: svn://www.crystallography.net/cod/cif/1/53/99/1539977.cif $
#------------------------------------------------------------------------------
#
# This file is available in the Crystallography Open Database (COD),
# http://www.crystallography.net/
#
# All data on this site have been placed in the public domain by the
# contributors.
#
data_1539977
loop_
_publ_author_name
'Yanchevskii, O.Z.'
'Tovstolytkin, A.I.'
'Durilin, D.A.'
'V'yunov, O.I.'
'Belous, A.G.'
_publ_section_title
;
 Structure and properties of nonstoichiometric La1-x Nax Mn O3+ - gamma
 solid solutions
;
_journal_name_full               'Neorganicheskie Materialy'
_journal_page_first              853
_journal_page_last               859
_journal_volume                  40
_journal_year                    2004
_chemical_formula_sum            'La0.92 Mn Na0.058 O3.09'
_chemical_name_systematic        '(La0.92 Na0.058) Mn O3.09'
_space_group_IT_number           167
_symmetry_space_group_name_Hall  '-R 3 2"c'
_symmetry_space_group_name_H-M   'R -3 c :H'
_cell_angle_alpha                90
_cell_angle_beta                 90
_cell_angle_gamma                120
_cell_formula_units_Z            6
_cell_length_a                   5.5206
_cell_length_b                   5.5206
_cell_length_c                   13.3416
_cell_volume                     352.137
_citation_journal_id_ASTM        NMATEI
_cod_data_source_file            Yanchevskii_NMATEI_2004_568.cif
_cod_data_source_block           La0.92Mn1Na0.058O3.09
_cod_original_cell_volume        352.1365
_cod_original_formula_sum        'La0.92 Mn1 Na0.058 O3.09'
_cod_database_code               1539977
loop_
_symmetry_equiv_pos_as_xyz
x,y,z
-y,x-y,z
-x+y,-x,z
y,x,-z+1/2
-x,-x+y,-z+1/2
x-y,-y,-z+1/2
-x,-y,-z
y,-x+y,-z
x-y,x,-z
-y,-x,z-1/2
x,x-y,z-1/2
-x+y,y,z-1/2
x+2/3,y+1/3,z+1/3
-y+2/3,x-y+1/3,z+1/3
-x+y+2/3,-x+1/3,z+1/3
y+2/3,x+1/3,-z+5/6
-x+2/3,-x+y+1/3,-z+5/6
x-y+2/3,-y+1/3,-z+5/6
-x+2/3,-y+1/3,-z+1/3
y+2/3,-x+y+1/3,-z+1/3
x-y+2/3,x+1/3,-z+1/3
-y+2/3,-x+1/3,z-1/6
x+2/3,x-y+1/3,z-1/6
-x+y+2/3,y+1/3,z-1/6
x+1/3,y+2/3,z+2/3
-y+1/3,x-y+2/3,z+2/3
-x+y+1/3,-x+2/3,z+2/3
y+1/3,x+2/3,-z+7/6
-x+1/3,-x+y+2/3,-z+7/6
x-y+1/3,-y+2/3,-z+7/6
-x+1/3,-y+2/3,-z+2/3
y+1/3,-x+y+2/3,-z+2/3
x-y+1/3,x+2/3,-z+2/3
-y+1/3,-x+2/3,z+1/6
x+1/3,x-y+2/3,z+1/6
-x+y+1/3,y+2/3,z+1/6
loop_
_atom_site_label
_atom_site_type_symbol
_atom_site_fract_x
_atom_site_fract_y
_atom_site_fract_z
_atom_site_occupancy
_atom_site_U_iso_or_equiv
La1 La+3 0 0 0.25 0.92 0.0
O1 O-2 0.456 0 0.25 1.03 0.0
Mn1 Mn+3 0 0 0 1 0.0
Na1 Na+1 0 0 0.25 0.058 0.0
