#------------------------------------------------------------------------------
#$Date: 2015-10-14 14:41:17 +0300 (Wed, 14 Oct 2015) $
#$Revision: 168525 $
#$URL: svn://www.crystallography.net/cod/cif/1/53/95/1539578.cif $
#------------------------------------------------------------------------------
#
# This file is available in the Crystallography Open Database (COD),
# http://www.crystallography.net/
#
# All data on this site have been placed in the public domain by the
# contributors.
#
data_1539578
loop_
_publ_author_name
'Anderson, A.A.'
'Smolin, Yu.I.'
'Shepelev, Yu.F.'
_publ_section_title
;
 Structural study of Mg-exchanged NaX and CaX zeolites in hydrated (25oC)
 and dehydrated (400oC) states
;
_journal_name_full               Zeolites
_journal_page_first              32
_journal_page_last               37
_journal_volume                  10
_journal_year                    1990
_chemical_formula_sum            'Al92 Ca23.2 Mg22.4 O384 Si100'
_chemical_name_systematic        'Ca23.20 Mg22.4 (Al92 Si100 O384)'
_space_group_IT_number           203
_symmetry_space_group_name_Hall  '-F 2uv 2vw 3'
_symmetry_space_group_name_H-M   'F d -3 :2'
_cell_angle_alpha                90
_cell_angle_beta                 90
_cell_angle_gamma                90
_cell_formula_units_Z            1
_cell_length_a                   24.92999
_cell_length_b                   24.92999
_cell_length_c                   24.92999
_cell_volume                     15494.099
_citation_journal_id_ASTM        ZEOLD3
_cod_data_source_file            Anderson_ZEOLD3_1990_1381.cif
_cod_data_source_block           Al92Ca23.2Mg22.4O384Si100
_cod_original_cell_volume        15494.1
_cod_database_code               1539578
loop_
_symmetry_equiv_pos_as_xyz
x,y,z
-x+1/4,-y+1/4,z
x,-y+1/4,-z+1/4
-x+1/4,y,-z+1/4
z,x,y
-z+1/4,-x+1/4,y
z,-x+1/4,-y+1/4
-z+1/4,x,-y+1/4
y,z,x
y,-z+1/4,-x+1/4
-y+1/4,z,-x+1/4
-y+1/4,-z+1/4,x
-x,-y,-z
x-1/4,y-1/4,-z
-x,y-1/4,z-1/4
x-1/4,-y,z-1/4
-z,-x,-y
z-1/4,x-1/4,-y
-z,x-1/4,y-1/4
z-1/4,-x,y-1/4
-y,-z,-x
-y,z-1/4,x-1/4
y-1/4,-z,x-1/4
y-1/4,z-1/4,-x
x,y+1/2,z+1/2
-x+1/4,-y+3/4,z+1/2
x,-y+3/4,-z+3/4
-x+1/4,y+1/2,-z+3/4
z,x+1/2,y+1/2
-z+1/4,-x+3/4,y+1/2
z,-x+3/4,-y+3/4
-z+1/4,x+1/2,-y+3/4
y,z+1/2,x+1/2
y,-z+3/4,-x+3/4
-y+1/4,z+1/2,-x+3/4
-y+1/4,-z+3/4,x+1/2
-x,-y+1/2,-z+1/2
x-1/4,y+1/4,-z+1/2
-x,y+1/4,z+1/4
x-1/4,-y+1/2,z+1/4
-z,-x+1/2,-y+1/2
z-1/4,x+1/4,-y+1/2
-z,x+1/4,y+1/4
z-1/4,-x+1/2,y+1/4
-y,-z+1/2,-x+1/2
-y,z+1/4,x+1/4
y-1/4,-z+1/2,x+1/4
y-1/4,z+1/4,-x+1/2
x+1/2,y,z+1/2
-x+3/4,-y+1/4,z+1/2
x+1/2,-y+1/4,-z+3/4
-x+3/4,y,-z+3/4
z+1/2,x,y+1/2
-z+3/4,-x+1/4,y+1/2
z+1/2,-x+1/4,-y+3/4
-z+3/4,x,-y+3/4
y+1/2,z,x+1/2
y+1/2,-z+1/4,-x+3/4
-y+3/4,z,-x+3/4
-y+3/4,-z+1/4,x+1/2
-x+1/2,-y,-z+1/2
x+1/4,y-1/4,-z+1/2
-x+1/2,y-1/4,z+1/4
x+1/4,-y,z+1/4
-z+1/2,-x,-y+1/2
z+1/4,x-1/4,-y+1/2
-z+1/2,x-1/4,y+1/4
z+1/4,-x,y+1/4
-y+1/2,-z,-x+1/2
-y+1/2,z-1/4,x+1/4
y+1/4,-z,x+1/4
y+1/4,z-1/4,-x+1/2
x+1/2,y+1/2,z
-x+3/4,-y+3/4,z
x+1/2,-y+3/4,-z+1/4
-x+3/4,y+1/2,-z+1/4
z+1/2,x+1/2,y
-z+3/4,-x+3/4,y
z+1/2,-x+3/4,-y+1/4
-z+3/4,x+1/2,-y+1/4
y+1/2,z+1/2,x
y+1/2,-z+3/4,-x+1/4
-y+3/4,z+1/2,-x+1/4
-y+3/4,-z+3/4,x
-x+1/2,-y+1/2,-z
x+1/4,y+1/4,-z
-x+1/2,y+1/4,z-1/4
x+1/4,-y+1/2,z-1/4
-z+1/2,-x+1/2,-y
z+1/4,x+1/4,-y
-z+1/2,x+1/4,y-1/4
z+1/4,-x+1/2,y-1/4
-y+1/2,-z+1/2,-x
-y+1/2,z+1/4,x-1/4
y+1/4,-z+1/2,x-1/4
y+1/4,z+1/4,-x
loop_
_atom_site_label
_atom_site_type_symbol
_atom_site_fract_x
_atom_site_fract_y
_atom_site_fract_z
_atom_site_occupancy
_atom_site_U_iso_or_equiv
Ca3 Ca+2 0.231 0.231 0.231 0.22 0.0
Si2 Si+4 -0.0545 0.0377 0.1224 0.0417 0.0
Si1 Si+4 -0.0518 0.1238 0.0353 1 0.0
Mg2 Mg+2 0.218 0.218 0.218 0.45 0.0
O4 O-2 -0.0644 0.0807 0.1722 1 0.0
O3 O-2 -0.0318 0.0681 0.0645 1 0.0
Al1 Al+3 -0.0545 0.0377 0.1224 0.9583 0.0
Ca2 Ca+2 0.0062 0.0062 0.0062 0.12 0.0
Ca1 Ca+2 0 0 0 0.77 0.0
O1 O-2 -0.1091 0.0009 0.1034 1 0.0
Mg1 Mg+2 0.2 0.2 0.2 0.25 0.0
O2 O-2 -0.0015 -0.0021 0.1459 1 0.0
