#------------------------------------------------------------------------------
#$Date: 2015-10-14 13:25:02 +0300 (Wed, 14 Oct 2015) $
#$Revision: 168346 $
#$URL: svn://www.crystallography.net/cod/cif/1/53/94/1539435.cif $
#------------------------------------------------------------------------------
#
# This file is available in the Crystallography Open Database (COD),
# http://www.crystallography.net/
#
# All data on this site have been placed in the public domain by the
# contributors.
#
data_1539435
loop_
_publ_author_name
'Achiwa, N.'
_publ_section_title
;
 Crystal structural study by Rietveld method
;
_journal_name_full               'Kyoto Daigaku Genshiro Jikkensho'
_journal_page_first              9
_journal_page_last               15
_journal_volume                  1988
_journal_year                    1988
_chemical_formula_sum            'Ba2.6 Cu3.3 La1.3 O7.6'
_chemical_name_systematic        'La1.3 Ba2.6 Cu3.3 O7.6'
_space_group_IT_number           123
_symmetry_space_group_name_Hall  '-P 4 2'
_symmetry_space_group_name_H-M   'P 4/m m m'
_cell_angle_alpha                90
_cell_angle_beta                 90
_cell_angle_gamma                90
_cell_formula_units_Z            1
_cell_length_a                   3.903
_cell_length_b                   3.903
_cell_length_c                   11.7216
_cell_volume                     178.560
_citation_journal_id_ASTM        KDGHDH
_cod_data_source_file            Achiwa_KDGHDH_1988_1336.cif
_cod_data_source_block           Ba2.6Cu3.3La1.3O7.6
_cod_original_cell_volume        178.5599
_cod_database_code               1539435
loop_
_symmetry_equiv_pos_as_xyz
x,y,z
-y,x,z
-x,-y,z
y,-x,z
x,-y,-z
y,x,-z
-x,y,-z
-y,-x,-z
-x,-y,-z
y,-x,-z
x,y,-z
-y,x,-z
-x,y,z
-y,-x,z
x,-y,z
y,x,z
loop_
_atom_site_label
_atom_site_type_symbol
_atom_site_fract_x
_atom_site_fract_y
_atom_site_fract_z
_atom_site_occupancy
_atom_site_U_iso_or_equiv
O2 O-2 0 0 0.154 1.3 0.0
O3 O-2 0 0.5 0.37 1 0.0
Cu2 Cu+1 0 0 0.34 1.2 0.0
O1 O-2 0 0.5 0 0.5 0.0
Cu1 Cu+1 0 0 0 0.9 0.0
La1 La+3 0.5 0.5 0.5 1.3 0.0
Ba1 Ba+2 0.5 0.5 0.174 1.3 0.0
