#------------------------------------------------------------------------------
#$Date: 2016-02-13 21:28:24 +0200 (Sat, 13 Feb 2016) $
#$Revision: 176429 $
#$URL: svn://www.crystallography.net/cod/cif/1/54/09/1540948.cif $
#------------------------------------------------------------------------------
#
# This file is available in the Crystallography Open Database (COD),
# http://www.crystallography.net/
#
# All data on this site have been placed in the public domain by the
# contributors.
#
data_1540948
loop_
_publ_author_name
'Shaked, H.'
'Veal, B.W.'
'Faber, J.jr'
'Hitterman, R.L.'
'Balachandran, U.'
'Tomlins, G.'
'Shi, H.'
'Morss, L.'
'Paulikas, A.P.'
_publ_section_title
;
 Structural and superconducting properties of oxygen-deficient
 NdBa2Cu3O7-d
;
_journal_name_full
'Physical Review, Serie 3. B - Condensed Matter (18,1978-)'
_journal_page_first              4173
_journal_page_last               4180
_journal_volume                  41
_journal_year                    1990
_chemical_formula_sum            'Ba2 Cu3 Nd O6.57'
_chemical_name_systematic        'Nd Ba2 Cu3 O6.57'
_space_group_IT_number           47
_symmetry_space_group_name_Hall  '-P 2 2'
_symmetry_space_group_name_H-M   'P m m m'
_cell_angle_alpha                90
_cell_angle_beta                 90
_cell_angle_gamma                90
_cell_formula_units_Z            1
_cell_length_a                   3.8851
_cell_length_b                   3.916
_cell_length_c                   11.8067
_cell_volume                     179.628
_citation_journal_id_ASTM        PRBMDO
_cod_data_source_file            Shaked_PRBMDO_1990_1893.cif
_cod_data_source_block           Ba2Cu3Nd1O6.57
_cod_original_cell_volume        179.6277
_cod_original_formula_sum        'Ba2 Cu3 Nd1 O6.57'
_cod_database_code               1540948
loop_
_symmetry_equiv_pos_as_xyz
x,y,z
-x,-y,z
x,-y,-z
-x,y,-z
-x,-y,-z
x,y,-z
-x,y,z
x,-y,z
loop_
_atom_site_label
_atom_site_type_symbol
_atom_site_fract_x
_atom_site_fract_y
_atom_site_fract_z
_atom_site_occupancy
_atom_site_U_iso_or_equiv
Cu2 Cu+2 0 0 0.3527 1 0.0
O4 O-2 0 0 0.154 0.99 0.0
O3 O-2 0 0.5 0.3713 1 0.0
Ba1 Ba+2 0.5 0.5 0.1877 1 0.0
Nd1 Nd+3 0.5 0.5 0.5 1 0.0
O2 O-2 0.5 0 0.3716 1 0.0
O5 O-2 0.5 0 0 0.13 0.0
Cu1 Cu+2 0 0 0 1 0.0
O1 O-2 0 0.5 0 0.47 0.0
