#------------------------------------------------------------------------------
#$Date: 2016-02-13 21:28:24 +0200 (Sat, 13 Feb 2016) $
#$Revision: 176429 $
#$URL: svn://www.crystallography.net/cod/cif/1/54/00/1540048.cif $
#------------------------------------------------------------------------------
#
# This file is available in the Crystallography Open Database (COD),
# http://www.crystallography.net/
#
# All data on this site have been placed in the public domain by the
# contributors.
#
data_1540048
loop_
_publ_author_name
'Haines, J.'
'Leger, J.M.'
'Schmidt, M.W.'
'da Jornada, J.A.H.'
'Petitet, J.P.'
'Pereira, A.S.'
'Hull, S.'
_publ_section_title
;
 Structural characterisation of the Pa3- -type, high pressure phase of
 ruthenium dioxide
;
_journal_name_full               'Journal of Physics and Chemistry of Solids'
_journal_page_first              239
_journal_page_last               243
_journal_volume                  59
_journal_year                    1998
_chemical_formula_sum            'O2 Ru'
_chemical_name_systematic        'Ru O2'
_space_group_IT_number           205
_symmetry_space_group_name_Hall  '-P 2ac 2ab 3'
_symmetry_space_group_name_H-M   'P a -3'
_cell_angle_alpha                90
_cell_angle_beta                 90
_cell_angle_gamma                90
_cell_formula_units_Z            4
_cell_length_a                   4.85892
_cell_length_b                   4.85892
_cell_length_c                   4.85892
_cell_volume                     114.715
_citation_journal_id_ASTM        JPCSAW
_cod_data_source_file            Haines_JPCSAW_1998_1801.cif
_cod_data_source_block           O2Ru1
_cod_original_cell_volume        114.7148
_cod_original_formula_sum        'O2 Ru1'
_cod_database_code               1540048
loop_
_symmetry_equiv_pos_as_xyz
x,y,z
-x+1/2,-y,z+1/2
x+1/2,-y+1/2,-z
-x,y+1/2,-z+1/2
z,x,y
-z+1/2,-x,y+1/2
z+1/2,-x+1/2,-y
-z,x+1/2,-y+1/2
y,z,x
y+1/2,-z+1/2,-x
-y,z+1/2,-x+1/2
-y+1/2,-z,x+1/2
-x,-y,-z
x-1/2,y,-z-1/2
-x-1/2,y-1/2,z
x,-y-1/2,z-1/2
-z,-x,-y
z-1/2,x,-y-1/2
-z-1/2,x-1/2,y
z,-x-1/2,y-1/2
-y,-z,-x
-y-1/2,z-1/2,x
y,-z-1/2,x-1/2
y-1/2,z,-x-1/2
loop_
_atom_site_label
_atom_site_type_symbol
_atom_site_fract_x
_atom_site_fract_y
_atom_site_fract_z
_atom_site_occupancy
_atom_site_U_iso_or_equiv
Ru1 Ru+4 0 0 0 1 0.0
O1 O-2 0.35115 0.35115 0.35115 1 0.0
