#------------------------------------------------------------------------------
#$Date: 2016-02-13 21:28:24 +0200 (Sat, 13 Feb 2016) $
#$Revision: 176429 $
#$URL: svn://www.crystallography.net/cod/cif/1/54/09/1540943.cif $
#------------------------------------------------------------------------------
#
# This file is available in the Crystallography Open Database (COD),
# http://www.crystallography.net/
#
# All data on this site have been placed in the public domain by the
# contributors.
#
data_1540943
loop_
_publ_author_name
'Sequeira, A.'
'Yakhmi, J.V.'
'Rajagopal, H.'
_publ_section_title
;
 Ageing effects in high-Tc Y Ba2 Cu3 O7-x superconductor. A neutron
 diffraction study
;
_journal_name_full               'Solid State Communications'
_journal_page_first              991
_journal_page_last               995
_journal_volume                  65
_journal_year                    1988
_chemical_formula_sum            'Ba2 Cu3 O6.14 Y'
_chemical_name_systematic        'Y Ba2 Cu3 O6.14'
_space_group_IT_number           47
_symmetry_space_group_name_Hall  '-P 2 2'
_symmetry_space_group_name_H-M   'P m m m'
_cell_angle_alpha                90
_cell_angle_beta                 90
_cell_angle_gamma                90
_cell_formula_units_Z            1
_cell_length_a                   3.816
_cell_length_b                   3.871
_cell_length_c                   11.65
_cell_volume                     172.091
_citation_journal_id_ASTM        SSCOA4
_cod_data_source_file            Sequeira_SSCOA4_1988_635.cif
_cod_data_source_block           Ba2Cu3O6.14Y1
_cod_original_cell_volume        172.0907
_cod_original_formula_sum        'Ba2 Cu3 O6.14 Y1'
_cod_database_code               1540943
loop_
_symmetry_equiv_pos_as_xyz
x,y,z
-x,-y,z
x,-y,-z
-x,y,-z
-x,-y,-z
x,y,-z
-x,y,z
x,-y,z
loop_
_atom_site_label
_atom_site_type_symbol
_atom_site_fract_x
_atom_site_fract_y
_atom_site_fract_z
_atom_site_occupancy
_atom_site_U_iso_or_equiv
O1 O-2 0 0.5 0 0.62 0.0
O2 O-2 0 0 0.167 1 0.0
Cu1 Cu+1 0 0 0 1 0.0
Cu2 Cu+1 0 0 0.365 1 0.0
Ba1 Ba+2 0.5 0.5 0.182 1 0.0
O4 O-2 0 0.5 0.377 0.86 0.0
O3 O-2 0.5 0 0.378 0.9 0.0
Y1 Y+3 0.5 0.5 0.5 1 0.0
