#------------------------------------------------------------------------------
#$Date: 2016-02-13 21:28:24 +0200 (Sat, 13 Feb 2016) $
#$Revision: 176429 $
#$URL: svn://www.crystallography.net/cod/cif/1/54/09/1540951.cif $
#------------------------------------------------------------------------------
#
# This file is available in the Crystallography Open Database (COD),
# http://www.crystallography.net/
#
# All data on this site have been placed in the public domain by the
# contributors.
#
data_1540951
loop_
_publ_author_name
'Shaked, H.'
'Faber, J.jr'
'Veal, B.W.'
'Hitterman, R.L.'
'Paulikas, A.P.'
_publ_section_title
;
 The site preference of Cu substituted Zn and Ni in YBa2Cu3O7-delta
;
_journal_name_full               'Solid State Communications'
_journal_page_first              445
_journal_page_last               449
_journal_volume                  75
_journal_year                    1990
_chemical_formula_sum            'Ba2 Cu2.85 O6.94 Y Zn0.15'
_chemical_name_systematic        'Y Ba2 (Cu.95 Zn.05)3 O6.94'
_space_group_IT_number           47
_symmetry_space_group_name_Hall  '-P 2 2'
_symmetry_space_group_name_H-M   'P m m m'
_cell_angle_alpha                90
_cell_angle_beta                 90
_cell_angle_gamma                90
_cell_formula_units_Z            1
_cell_length_a                   3.8273
_cell_length_b                   3.8924
_cell_length_c                   11.6737
_cell_volume                     173.908
_citation_journal_id_ASTM        SSCOA4
_cod_data_source_file            Shaked_SSCOA4_1990_1441.cif
_cod_data_source_block           Ba2Cu2.85O6.94Y1Zn0.15
_cod_original_cell_volume        173.9076
_cod_original_formula_sum        'Ba2 Cu2.85 O6.94 Y1 Zn0.15'
_cod_database_code               1540951
loop_
_symmetry_equiv_pos_as_xyz
x,y,z
-x,-y,z
x,-y,-z
-x,y,-z
-x,-y,-z
x,y,-z
-x,y,z
x,-y,z
loop_
_atom_site_label
_atom_site_type_symbol
_atom_site_fract_x
_atom_site_fract_y
_atom_site_fract_z
_atom_site_occupancy
_atom_site_U_iso_or_equiv
O3 O-2 0 0.5 0.3789 1 0.0
O4 O-2 0 0 0.1584 1 0.0
O5 O-2 0.5 0 0 0.06 0.0
O1 O-2 0 0.5 0 0.88 0.0
O2 O-2 0.5 0 0.3773 1 0.0
Cu2 Cu+2 0 0 0.3556 0.925 0.0
Cu1 Cu+2 0 0 0 1 0.0
Ba1 Ba+2 0.5 0.5 0.1843 1 0.0
Y1 Y+3 0.5 0.5 0.5 1 0.0
Zn2 Zn+2 0 0 0.3556 0.075 0.0
