#------------------------------------------------------------------------------
#$Date: 2015-10-20 19:32:32 +0300 (Tue, 20 Oct 2015) $
#$Revision: 169356 $
#$URL: svn://www.crystallography.net/cod/cif/1/54/01/1540162.cif $
#------------------------------------------------------------------------------
#
# This file is available in the Crystallography Open Database (COD),
# http://www.crystallography.net/
#
# All data on this site have been placed in the public domain by the
# contributors.
#
data_1540162
loop_
_publ_author_name
'Izumi, M.'
'Yabe, T.'
'Wada, T.'
'Maeda, A.'
'Asano, H.'
'Tanaka, S.'
'Uchinokura, K.'
_publ_section_title
;
 Structural properties of the superconductor La Ba2 Cu3-y O7-z in the
 solid solution system La1+x Ba2-x Cu3-y O7-z
;
_journal_name_full
'Physical Review, Serie 3. B - Condensed Matter (18,1978-)'
_journal_page_first              6771
_journal_page_last               6786
_journal_volume                  40
_journal_year                    1989
_chemical_formula_sum            'Ba1.44 Cu2.86 La1.56 O6.98'
_chemical_name_systematic        'La1.56 Ba1.44 Cu2.86 O6.98'
_space_group_IT_number           47
_symmetry_space_group_name_Hall  '-P 2 2'
_symmetry_space_group_name_H-M   'P m m m'
_cell_angle_alpha                90
_cell_angle_beta                 90
_cell_angle_gamma                90
_cell_formula_units_Z            1
_cell_length_a                   3.9182
_cell_length_b                   3.9277
_cell_length_c                   11.742
_cell_volume                     180.704
_citation_journal_id_ASTM        PRBMDO
_cod_data_source_file            Izumi_PRBMDO_1989_1148.cif
_cod_data_source_block           Ba1.44Cu2.86La1.56O6.98
_cod_original_cell_volume        180.7037
_cod_database_code               1540162
loop_
_symmetry_equiv_pos_as_xyz
x,y,z
-x,-y,z
x,-y,-z
-x,y,-z
-x,-y,-z
x,y,-z
-x,y,z
x,-y,z
loop_
_atom_site_label
_atom_site_type_symbol
_atom_site_fract_x
_atom_site_fract_y
_atom_site_fract_z
_atom_site_occupancy
_atom_site_U_iso_or_equiv
La1 La+3 0.5 0.5 0.5 1 0.0
Cu2 Cu+2 0 0 0.3466 1 0.0
O3 O-2 0 0 0.157 0.95 0.0
O1 O-2 0 0.5 0 0.75 0.0
O5 O-2 0 0.5 0.3603 1 0.0
La2 La+3 0.5 0.5 0.172 0.28 0.0
O2 O-2 0.5 0 0 0.28 0.0
Cu1 Cu+2 0 0 0 0.86 0.0
O4 O-2 0.5 0 0.3701 1 0.0
Ba1 Ba+2 0.5 0.5 0.189 0.72 0.0
