#------------------------------------------------------------------------------
#$Date: 2018-01-23 14:43:58 +0200 (Tue, 23 Jan 2018) $
#$Revision: 205493 $
#$URL: file:///home/coder/svn-repositories/cod/cif/1/54/05/1540575.cif $
#------------------------------------------------------------------------------
#
# This file is available in the Crystallography Open Database (COD),
# http://www.crystallography.net/
#
# All data on this site have been placed in the public domain by the
# contributors.
#
data_1540575
loop_
_publ_author_name
'Chang Sung Lim'
'Victor Atuchin'
'Aleksandr Aleksandrovsky'
'Maxim Molokeev'
'Aleksandr Oreshonkov'
_publ_section_title
;
 Microwave sol-gel synthesis of CaGd2(MoO4)4:Er3+/Yb3+ phosphors and their
 upconversion photoluminescence properties
;
_journal_issue                   10
_journal_name_full               'Journal of the American Ceramic Society'
_journal_page_first              3223
_journal_page_last               3230
_journal_paper_doi               10.1111/jace.13739
_journal_volume                  98
_journal_year                    2015
_chemical_formula_moiety         'Ca Gd2 Mo4 O16'
_chemical_formula_sum            'Ca Gd2 Mo4 O16'
_chemical_formula_weight         997.35
_space_group_IT_number           88
_symmetry_cell_setting           tetragonal
_symmetry_space_group_name_Hall  '-I 4ad'
_symmetry_space_group_name_H-M   'I 41/a :2'
_cell_angle_alpha                90
_cell_angle_beta                 90
_cell_angle_gamma                90
_cell_formula_units_Z            1
_cell_length_a                   5.22344(32)
_cell_length_b                   5.22344(32)
_cell_length_c                   11.50019(90)
_cell_measurement_temperature    300
_cell_volume                     313.77(4)
_diffrn_ambient_temperature      300
_diffrn_measurement_device_type
;
D8 ADVANCE Bruker
;
_diffrn_radiation_monochromator  none
_diffrn_radiation_probe          x-ray
_diffrn_radiation_type
;
 Cu K\a~1~~2~
;
_exptl_absorpt_coefficient_mu    103.437
_exptl_crystal_density_diffrn    5.262158
_pd_char_colour
;
colourless
;
_pd_meas_2theta_range_inc        0.02
_pd_meas_2theta_range_max        70
_pd_meas_2theta_range_min        10
_pd_meas_scan_method             step
_pd_proc_ls_pref_orient_corr
;
no preferred orientation
;
_pd_proc_ls_profile_function     PearsonVII
_pd_proc_ls_prof_R_factor        16.699
_pd_proc_ls_prof_wR_expected     16.746
_pd_proc_ls_prof_wR_factor       24.036
_pd_proc_number_of_points        3000
_pd_spec_mount_mode              reflection
_refine_ls_goodness_of_fit_all   1.435
_refine_ls_R_I_factor            5.10
_refine_ls_shift/su_max          0.01000
_cod_data_source_file            CaGd2MoO44.cif
_cod_data_source_block           a
_cod_original_cell_volume        313.775(46)
_cod_original_sg_symbol_Hall
;
-I 4ad
;
_cod_original_sg_symbol_H-M      I41/a
_cod_original_formula_sum
;
Ca Gd2 Mo4 O16
;
_cod_database_code               1540575
_cod_database_fobs_code          1540575
loop_
_symmetry_equiv_pos_as_xyz
'x, y, z'
'-x, -y, -z'
'-x, -y+1/2, z'
'-x+1/2, -y, z+1/2'
'-x+1/2, -y+1/2, -z+1/2'
'-y+1/4, x+1/4, -z+1/4'
'-y+1/4, x-1/4, z-1/4'
'-y-1/4, x+1/4, z+1/4'
'-y-1/4, x-1/4, -z-1/4'
'y+1/4, -x+1/4, z+1/4'
'y+1/4, -x-1/4, -z-1/4'
'y-1/4, -x+1/4, -z+1/4'
'y-1/4, -x-1/4, z-1/4'
'x, y+1/2, -z'
'x+1/2, y, -z+1/2'
'x+1/2, y+1/2, z+1/2'
loop_
_atom_site_label
_atom_site_type_symbol
_atom_site_fract_x
_atom_site_fract_y
_atom_site_fract_z
_atom_site_occupancy
_atom_site_B_iso_or_equiv
Ca Ca 0 0.25 0.625 0.25 1.45(79)
Gd Gd 0 0.25 0.625 0.5 1.45(79)
Mo Mo 0 0.25 0.125 1 0.50(70)
O O 0.2201(49) 0.0991(32) 0.0390(12) 1 2.9(11)
loop_
_diffrn_radiation_wavelength
_diffrn_radiation_wavelength_wt
1.5406 1.0000
1.5443 0.5000
loop_
_geom_angle_atom_site_label_1
_geom_angle_atom_site_label_2
_geom_angle_atom_site_label_3
_geom_angle
_geom_angle_site_symmetry_1
_geom_angle_site_symmetry_3
O Ca O 66.28(97) 4_555 5_555
O Ca O 72.17(77) 4_555 7_556
O Ca O 98.74(71) 4_555 9_556
O Ca O 153.1(32) 4_555 13_566
O Ca O 79.47(69) 4_555 15_455
O Ca O 134.1(18) 4_555 16_455
O Ca O 124.3(12) 5_555 7_556
O Ca O 82.74(64) 5_555 15_455
O Gd O 66.28(97) 4_555 5_555
O Gd O 72.17(77) 4_555 7_556
O Gd O 98.74(71) 4_555 9_556
O Gd O 153.1(32) 4_555 13_566
O Gd O 79.47(69) 4_555 15_455
O Gd O 134.1(18) 4_555 16_455
O Gd O 124.3(12) 5_555 7_556
O Gd O 82.74(64) 5_555 15_455
O Mo O 109.3(12) 1_555 3_555
O Mo O 109.6(11) 1_555 6_555
loop_
_geom_bond_atom_site_label_1
_geom_bond_atom_site_label_2
_geom_bond_distance
_geom_bond_site_symmetry_2
Ca O 2.538(21) 4_555
Ca O 2.513(19) 5_555
Gd O 2.538(21) 4_555
Gd O 2.513(19) 5_555
Mo O 1.709(20) .
