#------------------------------------------------------------------------------
#$Date: 2016-02-13 21:28:24 +0200 (Sat, 13 Feb 2016) $
#$Revision: 176429 $
#$URL: svn://www.crystallography.net/cod/cif/1/54/01/1540163.cif $
#------------------------------------------------------------------------------
#
# This file is available in the Crystallography Open Database (COD),
# http://www.crystallography.net/
#
# All data on this site have been placed in the public domain by the
# contributors.
#
data_1540163
loop_
_publ_author_name
'Izumi, M.'
'Yabe, T.'
'Wada, T.'
'Maeda, A.'
'Tanaka, S.'
'Uchinokura, K.'
'Asano, H.'
_publ_section_title
;
 Structural properties of the superconductor La Ba2 Cu3-y O7-z in the
 solid solution system La1+x Ba2-x Cu3-y O7-z
;
_journal_name_full
'Physical Review, Serie 3. B - Condensed Matter (18,1978-)'
_journal_page_first              6771
_journal_page_last               6786
_journal_volume                  40
_journal_year                    1989
_chemical_formula_sum            'Ba2 Cu3 La O6.85'
_chemical_name_systematic        'La Ba2 Cu3 O6.85'
_space_group_IT_number           47
_symmetry_space_group_name_Hall  '-P 2 2'
_symmetry_space_group_name_H-M   'P m m m'
_cell_angle_alpha                90
_cell_angle_beta                 90
_cell_angle_gamma                90
_cell_formula_units_Z            1
_cell_length_a                   3.893
_cell_length_b                   3.938
_cell_length_c                   11.818
_cell_volume                     181.177
_citation_journal_id_ASTM        PRBMDO
_cod_data_source_file            Izumi_PRBMDO_1989_1150.cif
_cod_data_source_block           Ba2Cu3La1O6.85
_cod_original_cell_volume        181.1774
_cod_original_formula_sum        'Ba2 Cu3 La1 O6.85'
_cod_database_code               1540163
loop_
_symmetry_equiv_pos_as_xyz
x,y,z
-x,-y,z
x,-y,-z
-x,y,-z
-x,-y,-z
x,y,-z
-x,y,z
x,-y,z
loop_
_atom_site_label
_atom_site_type_symbol
_atom_site_fract_x
_atom_site_fract_y
_atom_site_fract_z
_atom_site_occupancy
_atom_site_U_iso_or_equiv
O3 O-2 0 0 0.1584 1 0.0
O2 O-2 0.5 0 0 0.06 0.0
O5 O-2 0 0.5 0.3669 1 0.0
O4 O-2 0.5 0 0.3642 1 0.0
Ba1 Ba+2 0.5 0.5 0.1798 1 0.0
Cu2 Cu+2 0 0 0.3466 1 0.0
La1 La+3 0.5 0.5 0.5 1 0.0
Cu1 Cu+2 0 0 0 1 0.0
O1 O-2 0 0.5 0 0.79 0.0
