#------------------------------------------------------------------------------
#$Date: 2015-10-20 18:39:43 +0300 (Tue, 20 Oct 2015) $
#$Revision: 169242 $
#$URL: svn://www.crystallography.net/cod/cif/1/54/00/1540075.cif $
#------------------------------------------------------------------------------
#
# This file is available in the Crystallography Open Database (COD),
# http://www.crystallography.net/
#
# All data on this site have been placed in the public domain by the
# contributors.
#
data_1540075
loop_
_publ_author_name
'Heo, N.-H.'
'Dejsupa, C.'
'Seff, K.'
_publ_section_title
;
 Preparation and structure of fully Cs+ -exchanged zeolite A
;
_journal_name_full               'Journal of Physical Chemistry'
_journal_page_first              3943
_journal_page_last               3944
_journal_volume                  91
_journal_year                    1987
_chemical_formula_sum            'Al12 Cs12.94 O48 Si12'
_chemical_name_systematic        'Cs12.94 (Al12 Si12 O48)'
_space_group_IT_number           221
_symmetry_space_group_name_Hall  '-P 4 2 3'
_symmetry_space_group_name_H-M   'P m -3 m'
_cell_angle_alpha                90
_cell_angle_beta                 90
_cell_angle_gamma                90
_cell_formula_units_Z            1
_cell_length_a                   12.279
_cell_length_b                   12.279
_cell_length_c                   12.279
_cell_volume                     1851.352
_citation_journal_id_ASTM        JPCHAX
_cod_data_source_file            Heo_JPCHAX_1987_257.cif
_cod_data_source_block           Al12Cs12.94O48Si12
_cod_database_code               1540075
loop_
_symmetry_equiv_pos_as_xyz
x,y,z
-y,x,z
-x,-y,z
y,-x,z
x,-y,-z
y,x,-z
-x,y,-z
-y,-x,-z
z,x,y
-x,z,y
-z,-x,y
x,-z,y
z,-x,-y
x,z,-y
-z,x,-y
-x,-z,-y
y,z,x
y,-z,-x
z,y,-x
-y,z,-x
-z,-y,-x
-y,-z,x
z,-y,x
-z,y,x
-x,-y,-z
y,-x,-z
x,y,-z
-y,x,-z
-x,y,z
-y,-x,z
x,-y,z
y,x,z
-z,-x,-y
x,-z,-y
z,x,-y
-x,z,-y
-z,x,y
-x,-z,y
z,-x,y
x,z,y
-y,-z,-x
-y,z,x
-z,-y,x
y,-z,x
z,y,x
y,z,-x
-z,y,-x
z,-y,-x
loop_
_atom_site_label
_atom_site_type_symbol
_atom_site_fract_x
_atom_site_fract_y
_atom_site_fract_z
_atom_site_occupancy
_atom_site_U_iso_or_equiv
Cs4 Cs+1 0.2716 0.2716 0.5 0.065 0.0
Si1 Si+4 0 0.1838 0.3718 0.5 0.0
Al1 Al+3 0 0.1838 0.3718 0.5 0.0
Cs1 Cs+1 0 0.5 0.5 1 0.0
O1 O-2 0 0.2257 0.5 1 0.0
Cs2 Cs+1 0.2776 0.2776 0.2776 0.875 0.0
O3 O-2 0.1117 0.1117 0.3428 1 0.0
O2 O-2 0 0.2944 0.2944 1 0.0
Cs3 Cs 0.0958 0.0958 0.0958 0.27 0.0
