#------------------------------------------------------------------------------
#$Date: 2016-01-01 12:31:38 +0200 (Fri, 01 Jan 2016) $
#$Revision: 171928 $
#$URL: svn://www.crystallography.net/cod/cif/1/54/07/1540796.cif $
#------------------------------------------------------------------------------
#
# This file is available in the Crystallography Open Database (COD),
# http://www.crystallography.net/
#
# All data on this site have been placed in the public domain by the
# contributors.
#
data_1540796
loop_
_publ_author_name
'Yokoyama, Y.'
'Asano, H.'
_publ_section_title
;
 Crystal structure analysis of Ln1+xBa2-xCu3 O7-y (Ln= Nd, Eu, Sm, La) by
 rietveld analysis of powder x-ray diffraction data
;
_journal_name_full               'X-sen Bunseki no Shinpo'
_journal_page_first              59
_journal_page_last               68
_journal_volume                  21
_journal_year                    1989
_chemical_formula_sum            'Ba1.6 Cu3 Eu1.4 O6.61'
_chemical_name_systematic        'Eu1.4 Ba1.6 Cu3 O6.61'
_space_group_IT_number           123
_symmetry_space_group_name_Hall  '-P 4 2'
_symmetry_space_group_name_H-M   'P 4/m m m'
_cell_angle_alpha                90
_cell_angle_beta                 90
_cell_angle_gamma                90
_cell_formula_units_Z            1
_cell_length_a                   3.8623
_cell_length_b                   3.8623
_cell_length_c                   11.5813
_cell_volume                     172.762
_citation_journal_id_ASTM        XBNSDA
_cod_data_source_file            Yokoyama_XBNSDA_1989_1448.cif
_cod_data_source_block           Ba1.6Cu3Eu1.4O6.61
_cod_original_cell_volume        172.7624
_cod_database_code               1540796
loop_
_symmetry_equiv_pos_as_xyz
x,y,z
-y,x,z
-x,-y,z
y,-x,z
x,-y,-z
y,x,-z
-x,y,-z
-y,-x,-z
-x,-y,-z
y,-x,-z
x,y,-z
-y,x,-z
-x,y,z
-y,-x,z
x,-y,z
y,x,z
loop_
_atom_site_label
_atom_site_type_symbol
_atom_site_fract_x
_atom_site_fract_y
_atom_site_fract_z
_atom_site_occupancy
_atom_site_U_iso_or_equiv
Eu2 Eu+3 0.5 0.5 0.183 0.2 0.0
Ba1 Ba+2 0.5 0.5 0.183 0.8 0.0
Cu1 Cu+1 0 0 0 1 0.0
Eu1 Eu+3 0.5 0.5 0.5 1 0.0
O3 O-2 0 0.5 0.38 1 0.0
O2 O-2 0 0 0.165 1 0.0
O1 O-2 0 0.5 0 0.305 0.0
Cu2 Cu+1 0 0 0.355 1 0.0
