#------------------------------------------------------------------------------
#$Date: 2016-01-09 13:55:38 +0200 (Sat, 09 Jan 2016) $
#$Revision: 173884 $
#$URL: svn://www.crystallography.net/cod/cif/1/54/19/1541990.cif $
#------------------------------------------------------------------------------
#
# This file is available in the Crystallography Open Database (COD),
# http://www.crystallography.net/
#
# All data on this site have been placed in the public domain by the
# contributors.
#
data_1541990
loop_
_publ_author_name
'Goldschmidt, H.J.'
'Rait, J.R.'
_publ_section_title
;
 Silicates of the Perovskite Type of Structure
;
_journal_name_full               'Nature (London)'
_journal_page_first              356
_journal_page_last               356
_journal_volume                  152
_journal_year                    1943
_chemical_formula_sum            'Ca0.96 Mn0.32 O2.56 Si0.64'
_chemical_name_systematic        'Ca.96 Mn.32 Si.64 O2.56'
_space_group_IT_number           221
_symmetry_space_group_name_Hall  '-P 4 2 3'
_symmetry_space_group_name_H-M   'P m -3 m'
_cell_angle_alpha                90
_cell_angle_beta                 90
_cell_angle_gamma                90
_cell_formula_units_Z            1
_cell_length_a                   3.76
_cell_length_b                   3.76
_cell_length_c                   3.76
_cell_volume                     53.157
_citation_journal_id_ASTM        NATUAS
_cod_data_source_file            Goldschmidt_NATUAS_1943_1169.cif
_cod_data_source_block           Ca0.96Mn0.32O2.56Si0.64
_cod_original_cell_volume        53.15738
_cod_database_code               1541990
loop_
_symmetry_equiv_pos_as_xyz
x,y,z
-y,x,z
-x,-y,z
y,-x,z
x,-y,-z
y,x,-z
-x,y,-z
-y,-x,-z
z,x,y
-x,z,y
-z,-x,y
x,-z,y
z,-x,-y
x,z,-y
-z,x,-y
-x,-z,-y
y,z,x
y,-z,-x
z,y,-x
-y,z,-x
-z,-y,-x
-y,-z,x
z,-y,x
-z,y,x
-x,-y,-z
y,-x,-z
x,y,-z
-y,x,-z
-x,y,z
-y,-x,z
x,-y,z
y,x,z
-z,-x,-y
x,-z,-y
z,x,-y
-x,z,-y
-z,x,y
-x,-z,y
z,-x,y
x,z,y
-y,-z,-x
-y,z,x
-z,-y,x
y,-z,x
z,y,x
y,z,-x
-z,y,-x
z,-y,-x
loop_
_atom_site_label
_atom_site_type_symbol
_atom_site_fract_x
_atom_site_fract_y
_atom_site_fract_z
_atom_site_occupancy
_atom_site_U_iso_or_equiv
Mn2 Mn+2 0 0 0 0.04 0.0
Ca1 Ca+2 0 0 0 0.96 0.0
Si1 Si+4 0.5 0.5 0.5 0.64 0.0
O1 O-2 0.5 0.5 0 0.86 0.0
Mn1 Mn+2 0.5 0.5 0.5 0.28 0.0
