#------------------------------------------------------------------------------
#$Date: 2016-01-09 13:53:03 +0200 (Sat, 09 Jan 2016) $
#$Revision: 173872 $
#$URL: svn://www.crystallography.net/cod/cif/1/54/19/1541980.cif $
#------------------------------------------------------------------------------
#
# This file is available in the Crystallography Open Database (COD),
# http://www.crystallography.net/
#
# All data on this site have been placed in the public domain by the
# contributors.
#
data_1541980
loop_
_publ_author_name
'Fedulov, S.A.'
'Venevtsev, Yu.N.'
'Dzhmukhadze, D.F.'
_publ_section_title
;
 X-ray and electrical studies of the Pb Ti O3 - Bi Fe O3 system
;
_journal_name_full               Kristallografiya
_journal_page_first              408
_journal_page_last               411
_journal_volume                  7
_journal_year                    1962
_chemical_formula_sum            'Al0.5 La0.5 O3 Pb0.5 Ti0.5'
_chemical_name_systematic        '(Pb0.5 La0.5) (Al0.5 Ti0.5) O3'
_space_group_IT_number           221
_symmetry_space_group_name_Hall  '-P 4 2 3'
_symmetry_space_group_name_H-M   'P m -3 m'
_cell_angle_alpha                90
_cell_angle_beta                 90
_cell_angle_gamma                90
_cell_formula_units_Z            1
_cell_length_a                   3.87
_cell_length_b                   3.87
_cell_length_c                   3.87
_cell_volume                     57.961
_citation_journal_id_ASTM        KRISAJ
_cod_data_source_file            Fedulov_KRISAJ_1962_852.cif
_cod_data_source_block           Al0.5La0.5O3Pb0.5Ti0.5
_cod_original_cell_volume        57.9606
_cod_database_code               1541980
loop_
_symmetry_equiv_pos_as_xyz
x,y,z
-y,x,z
-x,-y,z
y,-x,z
x,-y,-z
y,x,-z
-x,y,-z
-y,-x,-z
z,x,y
-x,z,y
-z,-x,y
x,-z,y
z,-x,-y
x,z,-y
-z,x,-y
-x,-z,-y
y,z,x
y,-z,-x
z,y,-x
-y,z,-x
-z,-y,-x
-y,-z,x
z,-y,x
-z,y,x
-x,-y,-z
y,-x,-z
x,y,-z
-y,x,-z
-x,y,z
-y,-x,z
x,-y,z
y,x,z
-z,-x,-y
x,-z,-y
z,x,-y
-x,z,-y
-z,x,y
-x,-z,y
z,-x,y
x,z,y
-y,-z,-x
-y,z,x
-z,-y,x
y,-z,x
z,y,x
y,z,-x
-z,y,-x
z,-y,-x
loop_
_atom_site_label
_atom_site_type_symbol
_atom_site_fract_x
_atom_site_fract_y
_atom_site_fract_z
_atom_site_occupancy
_atom_site_U_iso_or_equiv
La1 La+3 0 0 0 0.5 0.0
O1 O-2 0.5 0.5 0 1 0.0
Al1 Al+3 0.5 0.5 0.5 0.5 0.0
Pb1 Pb+2 0 0 0 0.5 0.0
Ti1 Ti+4 0.5 0.5 0.5 0.5 0.0
