#------------------------------------------------------------------------------
#$Date: 2016-02-13 21:28:24 +0200 (Sat, 13 Feb 2016) $
#$Revision: 176429 $
#$URL: svn://www.crystallography.net/cod/cif/1/54/19/1541999.cif $
#------------------------------------------------------------------------------
#
# This file is available in the Crystallography Open Database (COD),
# http://www.crystallography.net/
#
# All data on this site have been placed in the public domain by the
# contributors.
#
data_1541999
loop_
_publ_author_name
'Kupriyanov, M.F.'
'Fesenko, E.G.'
_publ_section_title
;
 An X-ray study of the phase transition in Sr2 Fe Ta O6
;
_journal_name_full               Kristallografiya
_journal_page_first              315
_journal_page_last               316
_journal_volume                  7
_journal_year                    1962
_chemical_formula_sum            'Fe0.5 O3 Sr Ta0.5'
_chemical_name_systematic        'Sr ((Fe0.5 Ta0.5) O3)'
_space_group_IT_number           221
_symmetry_space_group_name_Hall  '-P 4 2 3'
_symmetry_space_group_name_H-M   'P m -3 m'
_cell_angle_alpha                90
_cell_angle_beta                 90
_cell_angle_gamma                90
_cell_formula_units_Z            1
_cell_length_a                   3.973
_cell_length_b                   3.973
_cell_length_c                   3.973
_cell_volume                     62.713
_citation_journal_id_ASTM        KRISAJ
_cod_data_source_file            Kupriyanov_KRISAJ_1962_828.cif
_cod_data_source_block           Fe0.5O3Sr1Ta0.5
_cod_original_cell_volume        62.71273
_cod_original_formula_sum        'Fe0.5 O3 Sr1 Ta0.5'
_cod_database_code               1541999
loop_
_symmetry_equiv_pos_as_xyz
x,y,z
-y,x,z
-x,-y,z
y,-x,z
x,-y,-z
y,x,-z
-x,y,-z
-y,-x,-z
z,x,y
-x,z,y
-z,-x,y
x,-z,y
z,-x,-y
x,z,-y
-z,x,-y
-x,-z,-y
y,z,x
y,-z,-x
z,y,-x
-y,z,-x
-z,-y,-x
-y,-z,x
z,-y,x
-z,y,x
-x,-y,-z
y,-x,-z
x,y,-z
-y,x,-z
-x,y,z
-y,-x,z
x,-y,z
y,x,z
-z,-x,-y
x,-z,-y
z,x,-y
-x,z,-y
-z,x,y
-x,-z,y
z,-x,y
x,z,y
-y,-z,-x
-y,z,x
-z,-y,x
y,-z,x
z,y,x
y,z,-x
-z,y,-x
z,-y,-x
loop_
_atom_site_label
_atom_site_type_symbol
_atom_site_fract_x
_atom_site_fract_y
_atom_site_fract_z
_atom_site_occupancy
_atom_site_U_iso_or_equiv
Fe1 Fe+3 0.5 0.5 0.5 0.5 0.0
Ta1 Ta+5 0.5 0.5 0.5 0.5 0.0
Sr1 Sr+2 0 0 0 1 0.0
O1 O-2 0.5 0.5 0 1 0.0
