#------------------------------------------------------------------------------
#$Date: 2016-02-13 21:28:24 +0200 (Sat, 13 Feb 2016) $
#$Revision: 176429 $
#$URL: svn://www.crystallography.net/cod/cif/1/54/20/1542048.cif $
#------------------------------------------------------------------------------
#
# This file is available in the Crystallography Open Database (COD),
# http://www.crystallography.net/
#
# All data on this site have been placed in the public domain by the
# contributors.
#
data_1542048
loop_
_publ_author_name
'Straumanis, M.E.'
'Ma, C.H.'
'Das Gupta, S.C.'
_publ_section_title
;
 Die Kalium-Wolframbronzen und Natrium-Kalium-Wolframbronzen
;
_journal_name_full
'Zeitschrift fuer Anorganische und Allgemeine Chemie'
_journal_page_first              209
_journal_page_last               219
_journal_volume                  265
_journal_year                    1951
_chemical_formula_sum            'Na0.11 O3 W'
_chemical_name_systematic        'Na0.11 (W O3)'
_space_group_IT_number           221
_symmetry_space_group_name_Hall  '-P 4 2 3'
_symmetry_space_group_name_H-M   'P m -3 m'
_cell_angle_alpha                90
_cell_angle_beta                 90
_cell_angle_gamma                90
_cell_formula_units_Z            1
_cell_length_a                   3.8351
_cell_length_b                   3.8351
_cell_length_c                   3.8351
_cell_volume                     56.407
_citation_journal_id_ASTM        ZAACAB
_cod_data_source_file            Straumanis_ZAACAB_1951_881.cif
_cod_data_source_block           Na0.11O3W1
_cod_original_cell_volume        56.40662
_cod_original_formula_sum        'Na0.11 O3 W1'
_cod_database_code               1542048
loop_
_symmetry_equiv_pos_as_xyz
x,y,z
-y,x,z
-x,-y,z
y,-x,z
x,-y,-z
y,x,-z
-x,y,-z
-y,-x,-z
z,x,y
-x,z,y
-z,-x,y
x,-z,y
z,-x,-y
x,z,-y
-z,x,-y
-x,-z,-y
y,z,x
y,-z,-x
z,y,-x
-y,z,-x
-z,-y,-x
-y,-z,x
z,-y,x
-z,y,x
-x,-y,-z
y,-x,-z
x,y,-z
-y,x,-z
-x,y,z
-y,-x,z
x,-y,z
y,x,z
-z,-x,-y
x,-z,-y
z,x,-y
-x,z,-y
-z,x,y
-x,-z,y
z,-x,y
x,z,y
-y,-z,-x
-y,z,x
-z,-y,x
y,-z,x
z,y,x
y,z,-x
-z,y,-x
z,-y,-x
loop_
_atom_site_label
_atom_site_type_symbol
_atom_site_fract_x
_atom_site_fract_y
_atom_site_fract_z
_atom_site_occupancy
_atom_site_U_iso_or_equiv
O1 O-2 0.5 0.5 0 1 0.0
W1 W+5 0.5 0.5 0.5 1 0.0
Na1 Na+1 0 0 0 0.11 0.0
