#------------------------------------------------------------------------------
#$Date: 2016-02-13 21:28:24 +0200 (Sat, 13 Feb 2016) $
#$Revision: 176429 $
#$URL: svn://www.crystallography.net/cod/cif/1/54/21/1542188.cif $
#------------------------------------------------------------------------------
#
# This file is available in the Crystallography Open Database (COD),
# http://www.crystallography.net/
#
# All data on this site have been placed in the public domain by the
# contributors.
#
data_1542188
loop_
_publ_author_name
'Wiseman, P.J.'
'Dickens, P.'
_publ_section_title
;
 Neutron diffraction studies of cubic tungsten bronzes
;
_journal_name_full               'Journal of Solid State Chemistry'
_journal_page_first              91
_journal_page_last               100
_journal_volume                  17
_journal_year                    1976
_chemical_formula_sum            'La0.14 O3 W'
_chemical_name_systematic        'La0.14 (W O3)'
_space_group_IT_number           221
_symmetry_space_group_name_Hall  '-P 4 2 3'
_symmetry_space_group_name_H-M   'P m -3 m'
_cell_angle_alpha                90
_cell_angle_beta                 90
_cell_angle_gamma                90
_cell_formula_units_Z            1
_cell_length_a                   3.383
_cell_length_b                   3.383
_cell_length_c                   3.383
_cell_volume                     38.717
_citation_journal_id_ASTM        JSSCBI
_cod_data_source_file            Wiseman_JSSCBI_1976_1150.cif
_cod_data_source_block           La0.14O3W1
_cod_original_cell_volume        38.71738
_cod_original_formula_sum        'La0.14 O3 W1'
_cod_database_code               1542188
loop_
_symmetry_equiv_pos_as_xyz
x,y,z
-y,x,z
-x,-y,z
y,-x,z
x,-y,-z
y,x,-z
-x,y,-z
-y,-x,-z
z,x,y
-x,z,y
-z,-x,y
x,-z,y
z,-x,-y
x,z,-y
-z,x,-y
-x,-z,-y
y,z,x
y,-z,-x
z,y,-x
-y,z,-x
-z,-y,-x
-y,-z,x
z,-y,x
-z,y,x
-x,-y,-z
y,-x,-z
x,y,-z
-y,x,-z
-x,y,z
-y,-x,z
x,-y,z
y,x,z
-z,-x,-y
x,-z,-y
z,x,-y
-x,z,-y
-z,x,y
-x,-z,y
z,-x,y
x,z,y
-y,-z,-x
-y,z,x
-z,-y,x
y,-z,x
z,y,x
y,z,-x
-z,y,-x
z,-y,-x
loop_
_atom_site_label
_atom_site_type_symbol
_atom_site_fract_x
_atom_site_fract_y
_atom_site_fract_z
_atom_site_occupancy
_atom_site_U_iso_or_equiv
W1 W+5 0.5 0.5 0.5 1 0.0
O1 O-2 0 0.5 0.5 1 0.0
La1 La+3 0 0 0 0.14 0.0
