#------------------------------------------------------------------------------
#$Date: 2016-02-13 21:28:24 +0200 (Sat, 13 Feb 2016) $
#$Revision: 176429 $
#$URL: svn://www.crystallography.net/cod/cif/1/54/21/1542125.cif $
#------------------------------------------------------------------------------
#
# This file is available in the Crystallography Open Database (COD),
# http://www.crystallography.net/
#
# All data on this site have been placed in the public domain by the
# contributors.
#
data_1542125
loop_
_publ_author_name
'Ismailzade, I.G.'
_publ_section_title
;
 An X-ray diffraction study of phase transitions in sodium tantalate
;
_journal_name_full               Kristallografiya
_journal_page_first              718
_journal_page_last               723
_journal_volume                  7
_journal_year                    1962
_chemical_formula_sum            'Na O3 Ta'
_chemical_name_systematic        'Na (Ta O3)'
_space_group_IT_number           221
_symmetry_space_group_name_Hall  '-P 4 2 3'
_symmetry_space_group_name_H-M   'P m -3 m'
_cell_angle_alpha                90
_cell_angle_beta                 90
_cell_angle_gamma                90
_cell_formula_units_Z            1
_cell_length_a                   3.931
_cell_length_b                   3.931
_cell_length_c                   3.931
_cell_volume                     60.745
_citation_journal_id_ASTM        KRISAJ
_cod_data_source_file            Ismailzade_KRISAJ_1962_840.cif
_cod_data_source_block           Na1O3Ta1
_cod_original_cell_volume        60.7448
_cod_original_formula_sum        'Na1 O3 Ta1'
_cod_database_code               1542125
loop_
_symmetry_equiv_pos_as_xyz
x,y,z
-y,x,z
-x,-y,z
y,-x,z
x,-y,-z
y,x,-z
-x,y,-z
-y,-x,-z
z,x,y
-x,z,y
-z,-x,y
x,-z,y
z,-x,-y
x,z,-y
-z,x,-y
-x,-z,-y
y,z,x
y,-z,-x
z,y,-x
-y,z,-x
-z,-y,-x
-y,-z,x
z,-y,x
-z,y,x
-x,-y,-z
y,-x,-z
x,y,-z
-y,x,-z
-x,y,z
-y,-x,z
x,-y,z
y,x,z
-z,-x,-y
x,-z,-y
z,x,-y
-x,z,-y
-z,x,y
-x,-z,y
z,-x,y
x,z,y
-y,-z,-x
-y,z,x
-z,-y,x
y,-z,x
z,y,x
y,z,-x
-z,y,-x
z,-y,-x
loop_
_atom_site_label
_atom_site_type_symbol
_atom_site_fract_x
_atom_site_fract_y
_atom_site_fract_z
_atom_site_occupancy
_atom_site_U_iso_or_equiv
Ta1 Ta+5 0.5 0.5 0.5 1 0.0
Na1 Na+1 0 0 0 1 0.0
O1 O-2 0.5 0.5 0 1 0.0
