#------------------------------------------------------------------------------
#$Date: 2016-02-13 21:28:24 +0200 (Sat, 13 Feb 2016) $
#$Revision: 176429 $
#$URL: svn://www.crystallography.net/cod/cif/1/54/20/1542032.cif $
#------------------------------------------------------------------------------
#
# This file is available in the Crystallography Open Database (COD),
# http://www.crystallography.net/
#
# All data on this site have been placed in the public domain by the
# contributors.
#
data_1542032
loop_
_publ_author_name
'Koehler, W.C.'
'Wollan, E.O.'
_publ_section_title
;
 Neutron-diffraction study of the magnetic properties of perovskite- like
 compounds La B O3
;
_journal_name_full               'Journal of Physics and Chemistry of Solids'
_journal_page_first              100
_journal_page_last               106
_journal_volume                  2
_journal_year                    1957
_chemical_formula_sum            'Fe La O3'
_chemical_name_systematic        'La (Fe O3)'
_space_group_IT_number           221
_symmetry_space_group_name_Hall  '-P 4 2 3'
_symmetry_space_group_name_H-M   'P m -3 m'
_cell_angle_alpha                90
_cell_angle_beta                 90
_cell_angle_gamma                90
_cell_formula_units_Z            1
_cell_length_a                   3.926
_cell_length_b                   3.926
_cell_length_c                   3.926
_cell_volume                     60.513
_citation_journal_id_ASTM        JPCSAW
_cod_data_source_file            Koehler_JPCSAW_1957_1236.cif
_cod_data_source_block           Fe1La1O3
_cod_original_cell_volume        60.51331
_cod_original_formula_sum        'Fe1 La1 O3'
_cod_database_code               1542032
loop_
_symmetry_equiv_pos_as_xyz
x,y,z
-y,x,z
-x,-y,z
y,-x,z
x,-y,-z
y,x,-z
-x,y,-z
-y,-x,-z
z,x,y
-x,z,y
-z,-x,y
x,-z,y
z,-x,-y
x,z,-y
-z,x,-y
-x,-z,-y
y,z,x
y,-z,-x
z,y,-x
-y,z,-x
-z,-y,-x
-y,-z,x
z,-y,x
-z,y,x
-x,-y,-z
y,-x,-z
x,y,-z
-y,x,-z
-x,y,z
-y,-x,z
x,-y,z
y,x,z
-z,-x,-y
x,-z,-y
z,x,-y
-x,z,-y
-z,x,y
-x,-z,y
z,-x,y
x,z,y
-y,-z,-x
-y,z,x
-z,-y,x
y,-z,x
z,y,x
y,z,-x
-z,y,-x
z,-y,-x
loop_
_atom_site_label
_atom_site_type_symbol
_atom_site_fract_x
_atom_site_fract_y
_atom_site_fract_z
_atom_site_occupancy
_atom_site_U_iso_or_equiv
O1 O-2 0.5 0.5 0 1 0.0
La1 La+3 0 0 0 1 0.0
Fe3 Fe+4 0.5 0.5 0.5 0.05 0.0
Fe1 Fe+2 0.5 0.5 0.5 0.05 0.0
Fe2 Fe+3 0.5 0.5 0.5 0.9 0.0
