#------------------------------------------------------------------------------
#$Date: 2016-11-15 09:22:25 +0200 (Tue, 15 Nov 2016) $
#$Revision: 188467 $
#$URL: file:///home/coder/svn-repositories/cod/cif/1/54/45/1544569.cif $
#------------------------------------------------------------------------------
#
# This file is available in the Crystallography Open Database (COD),
# http://www.crystallography.net/
#
# All data on this site have been placed in the public domain by the
# contributors.
#
data_1544569
loop_
_publ_author_name
'Takai, S.'
'Shinohara, T.'
'Hoshikawa, A.'
'Harjo, S.'
'Oikawa, K.'
'Ishigaki, T.'
'Kamiyama, T.'
'Esaka, T.'
_publ_section_title
;
 Neutron diffraction study on the defect structure of Ta-substituted
 Zn2TiO4 oxide ion conductors
;
_journal_name_full               'Journal of the Ceramic Society of Japan'
_journal_page_first              780
_journal_page_last               785
_journal_volume                  115
_journal_year                    2007
_chemical_formula_sum            'O4 Ta0.15 Ti0.85 Zn1.925'
_chemical_name_common            'Zn1.925Ti0.85Ta0.15O4 tetragonal spinel'
_space_group_IT_number           95
_space_group_name_H-M_alt        'P 43 2 2'
_symmetry_space_group_name_Hall  'P 4cw 2c'
_symmetry_space_group_name_H-M   'P 43 2 2'
_cell_angle_alpha                90
_cell_angle_beta                 90
_cell_angle_gamma                90
_cell_formula_units_Z            4
_cell_length_a                   6.02256(19)
_cell_length_b                   6.02256(19)
_cell_length_c                   8.42382(29)
_cell_volume                     305.542(17)
_cod_data_source_file            Zn1.925Ti0.85Ta0.15O4-tetra.cif
_cod_data_source_block           Zn1.925Ti0.85Ta0.15O4-tetra
_cod_original_formula_sum        'Zn1.925 Ti0.85 Ta0.15 O4'
_cod_database_code               1544569
loop_
_space_group_symop_operation_xyz
'x, y, z'
'-x, -y, z+1/2'
'-y, x, z+3/4'
'y, -x, z+1/4'
'-x, y, -z'
'x, -y, -z+1/2'
'y, x, -z+1/4'
'-y, -x, -z+3/4'
loop_
_atom_site_label
_atom_site_occupancy
_atom_site_fract_x
_atom_site_fract_y
_atom_site_fract_z
_atom_site_adp_type
_atom_site_B_iso_or_equiv
_atom_site_type_symbol
ZnTi1 0.9042 0.2426(18) 0.000000 0.250000 Biso 0.863000 Zn
ZnTi1 0.0740 0.2426(18) 0.000000 0.250000 Biso 0.863000 Ti
TiTa 0.7760 0.500000 0.253(6) 0.000000 Biso 0.591000 Ti
TiTa 0.1500 0.500000 0.253(6) 0.000000 Biso 0.591000 Ta
TiTa 0.0208 0.500000 0.253(6) 0.000000 Biso 0.591000 Zn
Zn2 1.0 0.2572(4) 0.2572(4) 0.625000 Biso 0.271000 Zn
O1 1.0 0.2656(4) 0.0231(4) -0.00210(10) Biso 0.374000 O
O2 1.0 0.2645(7) 0.4815(4) 0.01780(10) Biso 0.235000 O
