#------------------------------------------------------------------------------
#$Date: 2016-11-15 09:18:24 +0200 (Tue, 15 Nov 2016) $
#$Revision: 188461 $
#$URL: file:///home/coder/svn-repositories/cod/cif/1/54/45/1544563.cif $
#------------------------------------------------------------------------------
#
# This file is available in the Crystallography Open Database (COD),
# http://www.crystallography.net/
#
# All data on this site have been placed in the public domain by the
# contributors.
#
data_1544563
loop_
_publ_author_name
'Takai, S.'
'Shinohara, T.'
'Hoshikawa, A.'
'Harjo, S.'
'Oikawa, K.'
'Ishigaki, T.'
'Kamiyama, T.'
'Esaka, T.'
_publ_section_title
;
 Neutron diffraction study on the defect structure of Ta-substituted
 Zn2TiO4 oxide ion conductors
;
_journal_name_full               'Journal of the Ceramic Society of Japan'
_journal_page_first              780
_journal_page_last               785
_journal_volume                  115
_journal_year                    2007
_chemical_formula_sum            'O4 Ta0.12 Ti0.88 Zn1.94'
_chemical_name_common            Zn1.94Ti0.88Ta0.12O4
_space_group_IT_number           227
_space_group_name_H-M_alt        'F d -3 m'
_symmetry_space_group_name_Hall  'F 4d 2 3 -1d'
_symmetry_space_group_name_H-M   'F d -3 m :1'
_cell_angle_alpha                90
_cell_angle_beta                 90
_cell_angle_gamma                90
_cell_formula_units_Z            8
_cell_length_a                   8.48360(6)
_cell_length_b                   8.48360(6)
_cell_length_c                   8.48360(6)
_cell_volume                     610.577(7)
_cod_data_source_file            Zn1.94Ti0.88Ta0.12O4-cubic.cif
_cod_data_source_block           Zn1.94Ti0.88Ta0.12O4-cubic
_cod_original_formula_sum        'Zn1.94 Ti0.88 Ta0.12 O4'
_cod_database_code               1544563
loop_
_space_group_symop_operation_xyz
'x, y, z'
'-x, -y+1/2, z+1/2'
'-x+1/2, y+1/2, -z'
'x+1/2, -y, -z+1/2'
'z, x, y'
'z+1/2, -x, -y+1/2'
'-z, -x+1/2, y+1/2'
'-z+1/2, x+1/2, -y'
'y, z, x'
'-y+1/2, z+1/2, -x'
'y+1/2, -z, -x+1/2'
'-y, -z+1/2, x+1/2'
'y+3/4, x+1/4, -z+3/4'
'-y+1/4, -x+1/4, -z+1/4'
'y+1/4, -x+3/4, z+3/4'
'-y+3/4, x+3/4, z+1/4'
'x+3/4, z+1/4, -y+3/4'
'-x+3/4, z+3/4, y+1/4'
'-x+1/4, -z+1/4, -y+1/4'
'x+1/4, -z+3/4, y+3/4'
'z+3/4, y+1/4, -x+3/4'
'z+1/4, -y+3/4, x+3/4'
'-z+3/4, y+3/4, x+1/4'
'-z+1/4, -y+1/4, -x+1/4'
'-x+1/4, -y+1/4, -z+1/4'
'x+1/4, y+3/4, -z+3/4'
'x+3/4, -y+3/4, z+1/4'
'-x+3/4, y+1/4, z+3/4'
'-z+1/4, -x+1/4, -y+1/4'
'-z+3/4, x+1/4, y+3/4'
'z+1/4, x+3/4, -y+3/4'
'z+3/4, -x+3/4, y+1/4'
'-y+1/4, -z+1/4, -x+1/4'
'y+3/4, -z+3/4, x+1/4'
'-y+3/4, z+1/4, x+3/4'
'y+1/4, z+3/4, -x+3/4'
'-y+1/2, -x, z+1/2'
'y, x, z'
'-y, x+1/2, -z+1/2'
'y+1/2, -x+1/2, -z'
'-x+1/2, -z, y+1/2'
'x+1/2, -z+1/2, -y'
'x, z, y'
'-x, z+1/2, -y+1/2'
'-z+1/2, -y, x+1/2'
'-z, y+1/2, -x+1/2'
'z+1/2, -y+1/2, -x'
'z, y, x'
'x, y+1/2, z+1/2'
'-x, -y, z'
'-x+1/2, y, -z+1/2'
'x+1/2, -y+1/2, -z'
'z, x+1/2, y+1/2'
'z+1/2, -x+1/2, -y'
'-z, -x, y'
'-z+1/2, x, -y+1/2'
'y, z+1/2, x+1/2'
'-y+1/2, z, -x+1/2'
'y+1/2, -z+1/2, -x'
'-y, -z, x'
'y+3/4, x+3/4, -z+1/4'
'-y+1/4, -x+3/4, -z+3/4'
'y+1/4, -x+1/4, z+1/4'
'-y+3/4, x+1/4, z+3/4'
'x+3/4, z+3/4, -y+1/4'
'-x+3/4, z+1/4, y+3/4'
'-x+1/4, -z+3/4, -y+3/4'
'x+1/4, -z+1/4, y+1/4'
'z+3/4, y+3/4, -x+1/4'
'z+1/4, -y+1/4, x+1/4'
'-z+3/4, y+1/4, x+3/4'
'-z+1/4, -y+3/4, -x+3/4'
'-x+1/4, -y+3/4, -z+3/4'
'x+1/4, y+1/4, -z+1/4'
'x+3/4, -y+1/4, z+3/4'
'-x+3/4, y+3/4, z+1/4'
'-z+1/4, -x+3/4, -y+3/4'
'-z+3/4, x+3/4, y+1/4'
'z+1/4, x+1/4, -y+1/4'
'z+3/4, -x+1/4, y+3/4'
'-y+1/4, -z+3/4, -x+3/4'
'y+3/4, -z+1/4, x+3/4'
'-y+3/4, z+3/4, x+1/4'
'y+1/4, z+1/4, -x+1/4'
'-y+1/2, -x+1/2, z'
'y, x+1/2, z+1/2'
'-y, x, -z'
'y+1/2, -x, -z+1/2'
'-x+1/2, -z+1/2, y'
'x+1/2, -z, -y+1/2'
'x, z+1/2, y+1/2'
'-x, z, -y'
'-z+1/2, -y+1/2, x'
'-z, y, -x'
'z+1/2, -y, -x+1/2'
'z, y+1/2, x+1/2'
'x+1/2, y, z+1/2'
'-x+1/2, -y+1/2, z'
'-x, y+1/2, -z+1/2'
'x, -y, -z'
'z+1/2, x, y+1/2'
'z, -x, -y'
'-z+1/2, -x+1/2, y'
'-z, x+1/2, -y+1/2'
'y+1/2, z, x+1/2'
'-y, z+1/2, -x+1/2'
'y, -z, -x'
'-y+1/2, -z+1/2, x'
'y+1/4, x+1/4, -z+1/4'
'-y+3/4, -x+1/4, -z+3/4'
'y+3/4, -x+3/4, z+1/4'
'-y+1/4, x+3/4, z+3/4'
'x+1/4, z+1/4, -y+1/4'
'-x+1/4, z+3/4, y+3/4'
'-x+3/4, -z+1/4, -y+3/4'
'x+3/4, -z+3/4, y+1/4'
'z+1/4, y+1/4, -x+1/4'
'z+3/4, -y+3/4, x+1/4'
'-z+1/4, y+3/4, x+3/4'
'-z+3/4, -y+1/4, -x+3/4'
'-x+3/4, -y+1/4, -z+3/4'
'x+3/4, y+3/4, -z+1/4'
'x+1/4, -y+3/4, z+3/4'
'-x+1/4, y+1/4, z+1/4'
'-z+3/4, -x+1/4, -y+3/4'
'-z+1/4, x+1/4, y+1/4'
'z+3/4, x+3/4, -y+1/4'
'z+1/4, -x+3/4, y+3/4'
'-y+3/4, -z+1/4, -x+3/4'
'y+1/4, -z+3/4, x+3/4'
'-y+1/4, z+1/4, x+1/4'
'y+3/4, z+3/4, -x+1/4'
'-y, -x, z'
'y+1/2, x, z+1/2'
'-y+1/2, x+1/2, -z'
'y, -x+1/2, -z+1/2'
'-x, -z, y'
'x, -z+1/2, -y+1/2'
'x+1/2, z, y+1/2'
'-x+1/2, z+1/2, -y'
'-z, -y, x'
'-z+1/2, y+1/2, -x'
'z, -y+1/2, -x+1/2'
'z+1/2, y, x+1/2'
'x+1/2, y+1/2, z'
'-x+1/2, -y, z+1/2'
'-x, y, -z'
'x, -y+1/2, -z+1/2'
'z+1/2, x+1/2, y'
'z, -x+1/2, -y+1/2'
'-z+1/2, -x, y+1/2'
'-z, x, -y'
'y+1/2, z+1/2, x'
'-y, z, -x'
'y, -z+1/2, -x+1/2'
'-y+1/2, -z, x+1/2'
'y+1/4, x+3/4, -z+3/4'
'-y+3/4, -x+3/4, -z+1/4'
'y+3/4, -x+1/4, z+3/4'
'-y+1/4, x+1/4, z+1/4'
'x+1/4, z+3/4, -y+3/4'
'-x+1/4, z+1/4, y+1/4'
'-x+3/4, -z+3/4, -y+1/4'
'x+3/4, -z+1/4, y+3/4'
'z+1/4, y+3/4, -x+3/4'
'z+3/4, -y+1/4, x+3/4'
'-z+1/4, y+1/4, x+1/4'
'-z+3/4, -y+3/4, -x+1/4'
'-x+3/4, -y+3/4, -z+1/4'
'x+3/4, y+1/4, -z+3/4'
'x+1/4, -y+1/4, z+1/4'
'-x+1/4, y+3/4, z+3/4'
'-z+3/4, -x+3/4, -y+1/4'
'-z+1/4, x+3/4, y+3/4'
'z+3/4, x+1/4, -y+3/4'
'z+1/4, -x+1/4, y+1/4'
'-y+3/4, -z+3/4, -x+1/4'
'y+1/4, -z+1/4, x+1/4'
'-y+1/4, z+3/4, x+3/4'
'y+3/4, z+1/4, -x+3/4'
'-y, -x+1/2, z+1/2'
'y+1/2, x+1/2, z'
'-y+1/2, x, -z+1/2'
'y, -x, -z'
'-x, -z+1/2, y+1/2'
'x, -z, -y'
'x+1/2, z+1/2, y'
'-x+1/2, z, -y+1/2'
'-z, -y+1/2, x+1/2'
'-z+1/2, y, -x+1/2'
'z, -y, -x'
'z+1/2, y+1/2, x'
loop_
_atom_site_label
_atom_site_occupancy
_atom_site_fract_x
_atom_site_fract_y
_atom_site_fract_z
_atom_site_adp_type
_atom_site_B_iso_or_equiv
_atom_site_type_symbol
T 1.0 0.000000 0.000000 0.000000 Biso 0.47 Zn
M 0.4700 0.625000 0.625000 0.625000 Biso 0.94 Zn
M 0.4400 0.625000 0.625000 0.625000 Biso 0.94 Ti
M 0.0600 0.625000 0.625000 0.625000 Biso 0.94 Ta
O 1.0 0.38468(3) 0.38468(3) 0.38468(3) Biso 0.97 O
loop_
_atom_site_aniso_label
_atom_site_aniso_U_11
_atom_site_aniso_U_22
_atom_site_aniso_U_33
_atom_site_aniso_U_12
_atom_site_aniso_U_13
_atom_site_aniso_U_23
T 0.00600 0.00600 0.00600 0.00000 0.00000 0.00000
M 0.01190 0.01190 0.01190 -0.00200 -0.00200 -0.00200
M 0.01190 0.01190 0.01190 -0.00200 -0.00200 -0.00200
M 0.01190 0.01190 0.01190 -0.00200 -0.00200 -0.00200
O 0.01220 0.01220 0.01220 -0.00310 -0.00310 -0.00310
