#------------------------------------------------------------------------------
#$Date: 2016-11-02 04:06:59 +0200 (Wed, 02 Nov 2016) $
#$Revision: 187736 $
#$URL: file:///home/coder/svn-repositories/cod/cif/1/54/44/1544430.cif $
#------------------------------------------------------------------------------
#
# This file is available in the Crystallography Open Database (COD),
# http://www.crystallography.net/
#
# All data on this site have been placed in the public domain by the
# contributors.
#
data_1544430
loop_
_publ_author_name
'Toda, K.'
'Kurita, S.'
'Sato, M.'
_publ_section_title
;
 New layered perovskite compounds, LiLa2TiO4 and LiEuTiO4
;
_journal_name_full               'Journal of the Ceramic Society of Japan'
_journal_page_first              140
_journal_page_last               142
_journal_volume                  104
_journal_year                    1996
_chemical_formula_sum            'Eu Li O4 Ti'
_chemical_name_common            LiEuTiO4
_space_group_IT_number           57
_space_group_name_H-M_alt        'P b c m'
_symmetry_space_group_name_Hall  '-P 2c 2b'
_symmetry_space_group_name_H-M   'P b c m'
_cell_angle_alpha                90
_cell_angle_beta                 90
_cell_angle_gamma                90
_cell_formula_units_Z            4
_cell_length_a                   11.4155(7)
_cell_length_b                   5.355(1)
_cell_length_c                   5.353(1)
_cell_volume                     327.23(9)
_cod_data_source_file            LiEuTiO4.cif
_cod_data_source_block           LiEuTiO4
_cod_original_formula_sum        'Li Eu Ti O4'
_cod_database_code               1544430
loop_
_space_group_symop_operation_xyz
'x, y, z'
'-x, -y, -z'
'-x, -y, z+1/2'
'x, y, -z+1/2'
'-x, y+1/2, -z+1/2'
'x, -y+1/2, z+1/2'
'x, -y+1/2, -z'
'-x, y+1/2, z'
loop_
_atom_site_label
_atom_site_occupancy
_atom_site_fract_x
_atom_site_fract_y
_atom_site_fract_z
_atom_site_adp_type
_atom_site_B_iso_or_equiv
_atom_site_type_symbol
Li 1.0 0.49(2) 0.250000 0.000000 Biso 1.000000 Li
Eu 1.0 0.8810(4) 0.0200(10) 0.250000 Biso 1.000000 Eu
Ti 1.0 0.2900(10) 0.006(4) 0.250000 Biso 1.000000 Ti
O1 1.0 0.240(4) 0.250000 0.000000 Biso 1.000000 O
O2 1.0 0.745(4) 0.250000 0.000000 Biso 1.000000 O
O3 1.0 0.088(4) -0.066(8) 0.250000 Biso 1.000000 O
O4 1.0 0.438(3) 0.030(10) 0.250000 Biso 1.000000 O
