#------------------------------------------------------------------------------
#$Date: 2017-01-24 03:11:09 +0200 (Tue, 24 Jan 2017) $
#$Revision: 190845 $
#$URL: file:///home/coder/svn-repositories/cod/cif/1/54/51/1545130.cif $
#------------------------------------------------------------------------------
#
# This file is available in the Crystallography Open Database (COD),
# http://www.crystallography.net/
#
# All data on this site have been placed in the public domain by the
# contributors.
#
data_1545130
loop_
_publ_author_name
'Kawano, T.'
'Takahashi, J.'
'Yamada, T.'
'Yamane, H.'
_publ_section_title
;
 Preparation, crystal structure and high-temperature thermoelectric
 properties of double perovskite-type rare-earth cobalt ruthenium oxides
;
_journal_name_full               'Journal of the Ceramic Society of Japan'
_journal_page_first              792
_journal_page_last               796
_journal_volume                  115
_journal_year                    2007
_chemical_formula_sum            'Co La2 O6 Ru'
_chemical_name_common            'La2CoRuO6 double perovskite'
_space_group_IT_number           14
_space_group_name_H-M_alt        'P 1 21/n 1'
_symmetry_space_group_name_Hall  '-P 2yn'
_symmetry_space_group_name_H-M   'P 1 21/n 1'
_cell_angle_alpha                90
_cell_angle_beta                 90.00(1)
_cell_angle_gamma                90
_cell_formula_units_Z            2
_cell_length_a                   5.57558(17)
_cell_length_b                   5.63998(13)
_cell_length_c                   7.8878(2)
_cell_volume                     248.041(11)
_cod_data_source_file            La2CoRuO6.cif
_cod_data_source_block           La2CoRuO6
_cod_original_formula_sum        'La2 Co1 Ru1 O6'
_cod_database_code               1545130
loop_
_space_group_symop_operation_xyz
'x, y, z'
'-x, -y, -z'
'-x+1/2, y+1/2, -z+1/2'
'x+1/2, -y+1/2, z+1/2'
loop_
_atom_site_label
_atom_site_occupancy
_atom_site_fract_x
_atom_site_fract_y
_atom_site_fract_z
_atom_site_adp_type
_atom_site_B_iso_or_equiv
_atom_site_type_symbol
La 1.0 0.0090(4) 0.04607(11) 0.2508(4) Biso 0.273000 La
CoRu 0.9810 0.500000 0.000000 0.000000 Biso 0.273000 Co
CoRu 0.0190 0.500000 0.000000 0.000000 Biso 0.273000 Ru
RuCo 0.9810 0.500000 0.000000 0.500000 Biso 0.273000 Ru
RuCo 0.0190 0.500000 0.000000 0.500000 Biso 0.273000 Co
O1 1.0 0.201(2) -0.211(2) 0.046(3) Biso 0.273000 O
O2 1.0 0.289(2) 0.294(2) 0.036(3) Biso 0.273000 O
O3 1.0 -0.088(2) 0.4867(13) 0.250(2) Biso 0.273000 O
