#------------------------------------------------------------------------------
#$Date: 2017-01-19 15:00:33 +0200 (Thu, 19 Jan 2017) $
#$Revision: 190720 $
#$URL: file:///home/coder/svn-repositories/cod/cif/1/54/50/1545082.cif $
#------------------------------------------------------------------------------
#
# This file is available in the Crystallography Open Database (COD),
# http://www.crystallography.net/
#
# All data on this site have been placed in the public domain by the
# contributors.
#
data_1545082
loop_
_publ_author_name
'Kato, S.'
'Ohmori, E.'
'Suzuki, Y.'
'Ohshima, Y.'
'Sugai, M.'
'Takazawa, H.'
'Endo, T.'
_publ_section_title
;
 Cation ordering in the oxygen deficient perovskite Sr2-xLaxMg1-yTa1+yOz
;
_journal_name_full               'Journal of the Ceramic Society of Japan'
_journal_page_first              209
_journal_page_last               214
_journal_volume                  107
_journal_year                    1999
_chemical_formula_sum            'La0.4 Mg O5.7 Sr1.6 Ta'
_chemical_name_common            Sr1.6La0.4MgTaO5.7
_space_group_IT_number           225
_space_group_name_H-M_alt        'F m -3 m'
_symmetry_space_group_name_Hall  '-F 4 2 3'
_symmetry_space_group_name_H-M   'F m -3 m'
_cell_angle_alpha                90
_cell_angle_beta                 90
_cell_angle_gamma                90
_cell_formula_units_Z            4
_cell_length_a                   7.9835(1)
_cell_length_b                   7.9835(1)
_cell_length_c                   7.9835(1)
_cell_volume                     508.839(11)
_cod_data_source_file            Sr1.6La0.4MgTaO5.7.cif
_cod_data_source_block           Sr1.6La0.4MgTaO6
_cod_original_formula_sum        'Sr1.6 La0.4 Mg1 Ta1 O5.7'
_cod_database_code               1545082
loop_
_space_group_symop_operation_xyz
'x, y, z'
'-x, -y, -z'
'-x, -y, z'
'x, y, -z'
'-x, y, -z'
'x, -y, z'
'x, -y, -z'
'-x, y, z'
'z, x, y'
'-z, -x, -y'
'z, -x, -y'
'-z, x, y'
'-z, -x, y'
'z, x, -y'
'-z, x, -y'
'z, -x, y'
'y, z, x'
'-y, -z, -x'
'-y, z, -x'
'y, -z, x'
'y, -z, -x'
'-y, z, x'
'-y, -z, x'
'y, z, -x'
'y, x, -z'
'-y, -x, z'
'-y, -x, -z'
'y, x, z'
'y, -x, z'
'-y, x, -z'
'-y, x, z'
'y, -x, -z'
'x, z, -y'
'-x, -z, y'
'-x, z, y'
'x, -z, -y'
'-x, -z, -y'
'x, z, y'
'x, -z, y'
'-x, z, -y'
'z, y, -x'
'-z, -y, x'
'z, -y, x'
'-z, y, -x'
'-z, y, x'
'z, -y, -x'
'-z, -y, -x'
'z, y, x'
'x, y+1/2, z+1/2'
'-x, -y+1/2, -z+1/2'
'-x, -y+1/2, z+1/2'
'x, y+1/2, -z+1/2'
'-x, y+1/2, -z+1/2'
'x, -y+1/2, z+1/2'
'x, -y+1/2, -z+1/2'
'-x, y+1/2, z+1/2'
'z, x+1/2, y+1/2'
'-z, -x+1/2, -y+1/2'
'z, -x+1/2, -y+1/2'
'-z, x+1/2, y+1/2'
'-z, -x+1/2, y+1/2'
'z, x+1/2, -y+1/2'
'-z, x+1/2, -y+1/2'
'z, -x+1/2, y+1/2'
'y, z+1/2, x+1/2'
'-y, -z+1/2, -x+1/2'
'-y, z+1/2, -x+1/2'
'y, -z+1/2, x+1/2'
'y, -z+1/2, -x+1/2'
'-y, z+1/2, x+1/2'
'-y, -z+1/2, x+1/2'
'y, z+1/2, -x+1/2'
'y, x+1/2, -z+1/2'
'-y, -x+1/2, z+1/2'
'-y, -x+1/2, -z+1/2'
'y, x+1/2, z+1/2'
'y, -x+1/2, z+1/2'
'-y, x+1/2, -z+1/2'
'-y, x+1/2, z+1/2'
'y, -x+1/2, -z+1/2'
'x, z+1/2, -y+1/2'
'-x, -z+1/2, y+1/2'
'-x, z+1/2, y+1/2'
'x, -z+1/2, -y+1/2'
'-x, -z+1/2, -y+1/2'
'x, z+1/2, y+1/2'
'x, -z+1/2, y+1/2'
'-x, z+1/2, -y+1/2'
'z, y+1/2, -x+1/2'
'-z, -y+1/2, x+1/2'
'z, -y+1/2, x+1/2'
'-z, y+1/2, -x+1/2'
'-z, y+1/2, x+1/2'
'z, -y+1/2, -x+1/2'
'-z, -y+1/2, -x+1/2'
'z, y+1/2, x+1/2'
'x+1/2, y, z+1/2'
'-x+1/2, -y, -z+1/2'
'-x+1/2, -y, z+1/2'
'x+1/2, y, -z+1/2'
'-x+1/2, y, -z+1/2'
'x+1/2, -y, z+1/2'
'x+1/2, -y, -z+1/2'
'-x+1/2, y, z+1/2'
'z+1/2, x, y+1/2'
'-z+1/2, -x, -y+1/2'
'z+1/2, -x, -y+1/2'
'-z+1/2, x, y+1/2'
'-z+1/2, -x, y+1/2'
'z+1/2, x, -y+1/2'
'-z+1/2, x, -y+1/2'
'z+1/2, -x, y+1/2'
'y+1/2, z, x+1/2'
'-y+1/2, -z, -x+1/2'
'-y+1/2, z, -x+1/2'
'y+1/2, -z, x+1/2'
'y+1/2, -z, -x+1/2'
'-y+1/2, z, x+1/2'
'-y+1/2, -z, x+1/2'
'y+1/2, z, -x+1/2'
'y+1/2, x, -z+1/2'
'-y+1/2, -x, z+1/2'
'-y+1/2, -x, -z+1/2'
'y+1/2, x, z+1/2'
'y+1/2, -x, z+1/2'
'-y+1/2, x, -z+1/2'
'-y+1/2, x, z+1/2'
'y+1/2, -x, -z+1/2'
'x+1/2, z, -y+1/2'
'-x+1/2, -z, y+1/2'
'-x+1/2, z, y+1/2'
'x+1/2, -z, -y+1/2'
'-x+1/2, -z, -y+1/2'
'x+1/2, z, y+1/2'
'x+1/2, -z, y+1/2'
'-x+1/2, z, -y+1/2'
'z+1/2, y, -x+1/2'
'-z+1/2, -y, x+1/2'
'z+1/2, -y, x+1/2'
'-z+1/2, y, -x+1/2'
'-z+1/2, y, x+1/2'
'z+1/2, -y, -x+1/2'
'-z+1/2, -y, -x+1/2'
'z+1/2, y, x+1/2'
'x+1/2, y+1/2, z'
'-x+1/2, -y+1/2, -z'
'-x+1/2, -y+1/2, z'
'x+1/2, y+1/2, -z'
'-x+1/2, y+1/2, -z'
'x+1/2, -y+1/2, z'
'x+1/2, -y+1/2, -z'
'-x+1/2, y+1/2, z'
'z+1/2, x+1/2, y'
'-z+1/2, -x+1/2, -y'
'z+1/2, -x+1/2, -y'
'-z+1/2, x+1/2, y'
'-z+1/2, -x+1/2, y'
'z+1/2, x+1/2, -y'
'-z+1/2, x+1/2, -y'
'z+1/2, -x+1/2, y'
'y+1/2, z+1/2, x'
'-y+1/2, -z+1/2, -x'
'-y+1/2, z+1/2, -x'
'y+1/2, -z+1/2, x'
'y+1/2, -z+1/2, -x'
'-y+1/2, z+1/2, x'
'-y+1/2, -z+1/2, x'
'y+1/2, z+1/2, -x'
'y+1/2, x+1/2, -z'
'-y+1/2, -x+1/2, z'
'-y+1/2, -x+1/2, -z'
'y+1/2, x+1/2, z'
'y+1/2, -x+1/2, z'
'-y+1/2, x+1/2, -z'
'-y+1/2, x+1/2, z'
'y+1/2, -x+1/2, -z'
'x+1/2, z+1/2, -y'
'-x+1/2, -z+1/2, y'
'-x+1/2, z+1/2, y'
'x+1/2, -z+1/2, -y'
'-x+1/2, -z+1/2, -y'
'x+1/2, z+1/2, y'
'x+1/2, -z+1/2, y'
'-x+1/2, z+1/2, -y'
'z+1/2, y+1/2, -x'
'-z+1/2, -y+1/2, x'
'z+1/2, -y+1/2, x'
'-z+1/2, y+1/2, -x'
'-z+1/2, y+1/2, x'
'z+1/2, -y+1/2, -x'
'-z+1/2, -y+1/2, -x'
'z+1/2, y+1/2, x'
loop_
_atom_site_label
_atom_site_occupancy
_atom_site_fract_x
_atom_site_fract_y
_atom_site_fract_z
_atom_site_adp_type
_atom_site_B_iso_or_equiv
_atom_site_type_symbol
SrLa 0.8000 0.250000 0.250000 0.250000 Biso 1.000000 Sr
SrLa 0.2000 0.250000 0.250000 0.250000 Biso 1.000000 La
Mg1 0.8600 0.500000 0.500000 0.500000 Biso 1.000000 Mg
Mg1 0.1400 0.500000 0.500000 0.500000 Biso 1.000000 Ta
Mg2 0.8600 0.000000 0.000000 0.000000 Biso 1.000000 Mg
Mg2 0.1400 0.000000 0.000000 0.000000 Biso 1.000000 Ta
O 1.0 0.246(5) 0.000000 0.000000 Biso 1.000000 O
