#------------------------------------------------------------------------------
#$Date: 2017-01-19 14:56:33 +0200 (Thu, 19 Jan 2017) $
#$Revision: 190715 $
#$URL: file:///home/coder/svn-repositories/cod/cif/1/54/50/1545077.cif $
#------------------------------------------------------------------------------
#
# This file is available in the Crystallography Open Database (COD),
# http://www.crystallography.net/
#
# All data on this site have been placed in the public domain by the
# contributors.
#
data_1545077
loop_
_publ_author_name
'Kato, S.'
'Ohmori, E.'
'Suzuki, Y.'
'Ohshima, Y.'
'Sugai, M.'
'Takazawa, H.'
'Endo, T.'
_publ_section_title
;
 Cation ordering in the oxygen deficient perovskite Sr2-xLaxMg1-yTa1+yOz
;
_journal_name_full               'Journal of the Ceramic Society of Japan'
_journal_page_first              209
_journal_page_last               214
_journal_volume                  107
_journal_year                    1999
_chemical_formula_sum            'Mg0.4 O2.9 Sr Ta0.6'
_chemical_name_common            SrMg0.4Ta0.6O2.9
_space_group_IT_number           164
_space_group_name_H-M_alt        'P -3 m 1'
_symmetry_space_group_name_Hall  '-P 3 2"'
_symmetry_space_group_name_H-M   'P -3 m 1'
_cell_angle_alpha                90
_cell_angle_beta                 90
_cell_angle_gamma                120
_cell_formula_units_Z            3
_cell_length_a                   5.6581(1)
_cell_length_b                   5.6581(1)
_cell_length_c                   6.941(2)
_cell_volume                     192.44(6)
_cod_data_source_file            Sr2Mg0.8Ta1.2Oz.cif
_cod_data_source_block           SrMg0.4Ta0.6O2.9
_cod_original_formula_sum        'Sr1 Mg0.4 Ta0.6 O2.9'
_cod_database_code               1545077
loop_
_space_group_symop_operation_xyz
'x, y, z'
'-x, -y, -z'
'-y, x-y, z'
'y, -x+y, -z'
'-x+y, -x, z'
'x-y, x, -z'
'y, x, -z'
'-y, -x, z'
'x-y, -y, -z'
'-x+y, y, z'
'-x, -x+y, -z'
'x, x-y, z'
loop_
_atom_site_label
_atom_site_occupancy
_atom_site_fract_x
_atom_site_fract_y
_atom_site_fract_z
_atom_site_adp_type
_atom_site_B_iso_or_equiv
_atom_site_type_symbol
Sr1 1.0 0.000000 0.000000 0.000000 Biso 1.000000 Sr
Sr2 1.0 0.333333 0.666667 0.654(3) Biso 1.000000 Sr
Mg1 0.7200 0.000000 0.000000 0.500000 Biso 1.000000 Mg
Mg1 0.2800 0.000000 0.000000 0.500000 Biso 1.000000 Ta
Mg2 0.2400 0.333333 0.666667 0.171(3) Biso 1.000000 Mg
Mg2 0.7600 0.333333 0.666667 0.171(3) Biso 1.000000 Ta
O1 0.9670 0.500000 0.000000 0.000000 Biso 1.000000 O
O2 0.9670 0.169(7) 0.338(14) 0.310(10) Biso 1.000000 O
