#------------------------------------------------------------------------------
#$Date: 2017-06-22 06:03:21 +0300 (Thu, 22 Jun 2017) $
#$Revision: 198060 $
#$URL: file:///home/coder/svn-repositories/cod/cif/1/54/63/1546367.cif $
#------------------------------------------------------------------------------
#
# This file is available in the Crystallography Open Database (COD),
# http://www.crystallography.net/
#
# All data on this site have been placed in the public domain by the
# contributors.
#
data_1546367
loop_
_publ_author_name
'Yamada, I.'
'Shiro, K.'
'Hayashi, N.'
'Kawaguchi, S.'
'Kawakami, T.'
'Takahashi, R.'
'Irifune, T.'
_publ_section_title
;
 Structural and electronic transformations in quadruple iron perovskite
 Ca1-xSrxCu3Fe4O12
;
_journal_name_full               'Journal of Asian Ceramic Societies'
_journal_page_first              5
_journal_page_last               169
_journal_volume                  175
_journal_year                    2017
_chemical_formula_sum            'Ca0.6 Cu3 Fe4 O12 Sr0.4'
_chemical_name_common            'Ca0.6Sr0.4Cu3Fe4O12 at 300 K'
_space_group_IT_number           204
_space_group_name_H-M_alt        'I m -3'
_symmetry_space_group_name_Hall  '-I 2 2 3'
_symmetry_space_group_name_H-M   'I m -3'
_cell_angle_alpha                90
_cell_angle_beta                 90
_cell_angle_gamma                90
_cell_formula_units_Z            2
_cell_length_a                   7.31708(17)
_cell_length_b                   7.31708(17)
_cell_length_c                   7.31708(17)
_cell_volume                     391.754(16)
_diffrn_ambient_temperature      300
_cod_data_source_file            Ca0.6Sr0.4Cu3Fe4O12-300K.cif
_cod_data_source_block           Ca0.6Sr0.4Cu3Fe4O12-300K
_cod_original_formula_sum        'Ca0.6 Sr0.4 Cu3 Fe4 O12'
_cod_database_code               1546367
loop_
_space_group_symop_operation_xyz
'x, y, z'
'-x, -y, -z'
'-x, -y, z'
'x, y, -z'
'-x, y, -z'
'x, -y, z'
'x, -y, -z'
'-x, y, z'
'z, x, y'
'-z, -x, -y'
'z, -x, -y'
'-z, x, y'
'-z, -x, y'
'z, x, -y'
'-z, x, -y'
'z, -x, y'
'y, z, x'
'-y, -z, -x'
'-y, z, -x'
'y, -z, x'
'y, -z, -x'
'-y, z, x'
'-y, -z, x'
'y, z, -x'
'x+1/2, y+1/2, z+1/2'
'-x+1/2, -y+1/2, -z+1/2'
'-x+1/2, -y+1/2, z+1/2'
'x+1/2, y+1/2, -z+1/2'
'-x+1/2, y+1/2, -z+1/2'
'x+1/2, -y+1/2, z+1/2'
'x+1/2, -y+1/2, -z+1/2'
'-x+1/2, y+1/2, z+1/2'
'z+1/2, x+1/2, y+1/2'
'-z+1/2, -x+1/2, -y+1/2'
'z+1/2, -x+1/2, -y+1/2'
'-z+1/2, x+1/2, y+1/2'
'-z+1/2, -x+1/2, y+1/2'
'z+1/2, x+1/2, -y+1/2'
'-z+1/2, x+1/2, -y+1/2'
'z+1/2, -x+1/2, y+1/2'
'y+1/2, z+1/2, x+1/2'
'-y+1/2, -z+1/2, -x+1/2'
'-y+1/2, z+1/2, -x+1/2'
'y+1/2, -z+1/2, x+1/2'
'y+1/2, -z+1/2, -x+1/2'
'-y+1/2, z+1/2, x+1/2'
'-y+1/2, -z+1/2, x+1/2'
'y+1/2, z+1/2, -x+1/2'
loop_
_atom_site_label
_atom_site_occupancy
_atom_site_fract_x
_atom_site_fract_y
_atom_site_fract_z
_atom_site_adp_type
_atom_site_U_iso_or_equiv
_atom_site_type_symbol
Ca 0.6000 0.000000 0.000000 0.000000 Uiso 0.0084(11) Ca
Sr 0.4000 0.000000 0.000000 0.000000 Uiso 0.0084(11) Sr
Cu 1.0 0.000000 0.500000 0.500000 Uiso 0.0056(5) Cu
Fe 1.0 0.250000 0.250000 0.250000 Uiso 0.0018(4) Fe
O 1.0 0.1707(5) 0.3053(5) 0.000000 Uiso 0.0026(7) O
