#------------------------------------------------------------------------------
#$Date: 2017-10-30 11:45:20 +0200 (Mon, 30 Oct 2017) $
#$Revision: 202409 $
#$URL: file:///home/coder/svn-repositories/cod/cif/1/54/78/1547819.cif $
#------------------------------------------------------------------------------
#
# This file is available in the Crystallography Open Database (COD),
# http://www.crystallography.net/
#
# All data on this site have been placed in the public domain by the
# contributors.
#
data_1547819
loop_
_publ_author_name
'Gleissner, J.'
'Errandonea, D.'
_publ_section_title
;
 Monazite-type SrCrO4 under compression
;
_journal_name_full               'Phys. Rev B'
_journal_page_first              134108
_journal_page_last               134108
_journal_volume                  94
_journal_year                    2016
_chemical_compound_source        Synthetic
_chemical_formula_sum            'Cr O4 Sr'
_space_group_IT_number           14
_symmetry_Int_Tables_number      14
_symmetry_space_group_name_Hall  '-P 2yn'
_symmetry_space_group_name_H-M   'P 1 21/n 1'
_cell_angle_alpha                90
_cell_angle_beta                 103.1
_cell_angle_gamma                90
_cell_formula_units_Z            4
_cell_length_a                   7.065
_cell_length_b                   7.376
_cell_length_c                   6.741
_cell_volume                     342.141
_exptl_crystal_density_diffrn    3.953
_pd_phase_name                   SrCrO4_monazite
_cod_data_source_file            SrCrO4_monazite.cif
_cod_data_source_block           9014695
_cod_original_cell_volume        342.141422
_cod_original_sg_symbol_H-M      'P 21/n'
_cod_original_formula_sum        'Sr Cr O4'
_cod_database_code               1547819
loop_
_symmetry_equiv_pos_as_xyz
'x, y, z'
'-x, -y, -z'
'-x+1/2, y+1/2, -z+1/2'
'x+1/2, -y+1/2, z+1/2'
loop_
_atom_site_label
_atom_site_occupancy
_atom_site_fract_x
_atom_site_fract_y
_atom_site_fract_z
_atom_site_adp_type
_atom_site_U_iso_or_equiv
_atom_site_type_symbol
O1 1.0 0.258400 0.005500 0.056200 Uiso 1.000000 O
O2 1.0 0.120100 0.337300 0.002400 Uiso 1.000000 O
O3 1.0 0.025600 0.101200 0.698100 Uiso 1.000000 O
O4 1.0 0.377600 0.217900 0.788100 Uiso 1.000000 O
Cr 1.0 0.197690 0.164870 0.886910 Uiso 1.000000 Cr
Sr 1.0 0.228130 0.158690 0.398060 Uiso 1.000000 Sr
