#------------------------------------------------------------------------------
#$Date: 2017-09-13 15:35:47 +0300 (Wed, 13 Sep 2017) $
#$Revision: 200839 $
#$URL: file:///home/coder/svn-repositories/cod/cif/1/54/71/1547155.cif $
#------------------------------------------------------------------------------
#
# This file is available in the Crystallography Open Database (COD),
# http://www.crystallography.net/
#
# All data on this site have been placed in the public domain by the
# contributors.
#
data_1547155
loop_
_publ_author_name
'Kumada, N.'
'Koike, N.'
'Nakanome, K.'
'Yanagida, S.'
'Takei, T.'
'Miura, A.'
'Magome, E.'
'Moriyoshi, C.'
'Kuroiwa, Y.'
_publ_section_title
;
 Synthesis of rutile-type solid solution Ni1-xCoxTi(Nb1-yTay)2O8
 (0<=x<=1,0<=y<=1) and its optical property
;
_journal_name_full               'Journal of Asian Ceramic Societies'
_journal_page_first              5
_journal_page_last               284
_journal_volume                  289
_journal_year                    2017
_chemical_formula_sum            'Co0.15 Ni0.1 O2 Ta0.5 Ti0.25'
_chemical_name_common            Ni0.1Co0.15Ti0.25Ta0.5O2
_space_group_IT_number           136
_space_group_name_H-M_alt        'P 42/m n m'
_symmetry_space_group_name_Hall  '-P 4n 2n'
_symmetry_space_group_name_H-M   'P 42/m n m'
_cell_angle_alpha                90
_cell_angle_beta                 90
_cell_angle_gamma                90
_cell_formula_units_Z            1
_cell_length_a                   4.6998(3)
_cell_length_b                   4.6998(3)
_cell_length_c                   9.0986(3)
_cell_volume                     200.971(19)
_cod_data_source_file            Ni0.4Co0.6TiTa2O8.cif
_cod_data_source_block           Ni0.4Co0.6TiTa2O8
_cod_original_formula_sum        'Ni0.1 Co0.15 Ti0.25 Ta0.5 O2'
_cod_database_code               1547155
loop_
_space_group_symop_operation_xyz
'x, y, z'
'-x, -y, -z'
'-x, -y, z'
'x, y, -z'
'-y+1/2, x+1/2, z+1/2'
'y+1/2, -x+1/2, -z+1/2'
'y+1/2, -x+1/2, z+1/2'
'-y+1/2, x+1/2, -z+1/2'
'-x+1/2, y+1/2, -z+1/2'
'x+1/2, -y+1/2, z+1/2'
'x+1/2, -y+1/2, -z+1/2'
'-x+1/2, y+1/2, z+1/2'
'y, x, -z'
'-y, -x, z'
'-y, -x, -z'
'y, x, z'
loop_
_atom_site_label
_atom_site_occupancy
_atom_site_fract_x
_atom_site_fract_y
_atom_site_fract_z
_atom_site_adp_type
_atom_site_U_iso_or_equiv
_atom_site_type_symbol
M1 0.3000 0.000000 0.000000 0.000000 Uiso 0.0191(6) Ni
M1 0.4500 0.000000 0.000000 0.000000 Uiso 0.0191(6) Co
M1 0.2500 0.000000 0.000000 0.000000 Uiso 0.0191(6) Ta
M2 0.6250 0.000000 0.000000 0.33200(10) Uiso 0.0020(2) Ta
M2 0.3750 0.000000 0.000000 0.33200(10) Uiso 0.0020(2) Ti
O1 1.0 0.323(2) 0.323(2) 0.000000 Uiso 0.0063 O
O2 1.0 0.2920(10) 0.2920(10) 0.3170(10) Uiso 0.0063 O
