#------------------------------------------------------------------------------
#$Date: 2017-11-07 03:05:40 +0200 (Tue, 07 Nov 2017) $
#$Revision: 202768 $
#$URL: file:///home/coder/svn-repositories/cod/cif/1/54/72/1547283.cif $
#------------------------------------------------------------------------------
#
# This file is available in the Crystallography Open Database (COD),
# http://www.crystallography.net/
#
# All data on this site have been placed in the public domain by the
# contributors.
#
data_1547283
loop_
_publ_author_name
'Proskurnina, Natalia V.'
'Voronin, Vladimir I.'
'Shekhtman, Georgi Sh.'
'Maskaeva, Larisa N.'
'Kabanova, Natalia A.'
'Kabanov, Artem A.'
'Blatov, Vladislav A.'
_publ_section_title
;
 Ionic Conductivity in Ti-Doped KFeO2: Experiment and Mathematical
 Modeling
;
_journal_issue                   39
_journal_name_full               'The Journal of Physical Chemistry C'
_journal_page_first              21128
_journal_paper_doi               10.1021/acs.jpcc.7b05164
_journal_volume                  121
_journal_year                    2017
_chemical_formula_iupac          K14.4Fe14.4Ti1.6O32
_chemical_formula_sum            'Fe14.4 K14.4 O32 Ti1.6'
_chemical_formula_weight         1955.42
_space_group_IT_number           61
_symmetry_cell_setting           orthorhombic
_symmetry_space_group_name_Hall  '-P 2ac 2ab'
_symmetry_space_group_name_H-M   'P b c a'
_cell_angle_alpha                90.00000
_cell_angle_beta                 90.00000
_cell_angle_gamma                90.00000
_cell_formula_units_Z            1
_cell_length_a                   5.6343(6)
_cell_length_b                   11.2778(12)
_cell_length_c                   15.9493(16)
_cell_measurement_temperature    300
_cell_volume                     1013.46(18)
_computing_structure_refinement  FULLPROF
_diffrn_ambient_temperature      300
_diffrn_measurement_device_type  'HRPT neutron diffractometer'
_diffrn_radiation_type           Neutron
_diffrn_radiation_wavelength     1.49400
_diffrn_source                   'nuclear reactor'
_pd_meas_2theta_range_inc        0.050000
_pd_meas_2theta_range_max        164.89999
_pd_meas_2theta_range_min        4.55000
_pd_meas_number_of_points        3208
_pd_proc_2theta_range_inc        0.050000
_pd_proc_2theta_range_max        164.8765
_pd_proc_2theta_range_min        4.5265
_pd_proc_ls_prof_R_factor        4.5116
_pd_proc_ls_prof_wR_expected     4.0906
_pd_proc_ls_prof_wR_factor       5.8312
_pd_proc_wavelength              1.494000
_refine_ls_goodness_of_fit_all   2.0321
_refine_ls_number_parameters     58
_refine_ls_number_reflns         1264
_refine_ls_number_restraints     0
_refine_ls_R_I_factor            7.3694
_cod_data_source_file            jp7b05164_si_002.cif
_cod_data_source_block           heat_300K
_cod_depositor_comments
'Adding full bibliography for 1547283--1547290.cif.'
_cod_original_cell_volume        1013.46(19)
_cod_original_formula_sum        'Fe14.40 K14.40 O32 Ti1.60'
_cod_database_code               1547283
_publcif_datablock.id            {ae09a2dd-0f51-4aba-8147-d42354d48625}
_pd_proc_ls_prof_cr_factor       16.6968
_pd_proc_ls_prof_cwr_factor      15.4602
_pd_proc_ls_prof_cwr_expected    10.8452
_pd_proc_ls_prof_chi2            2.0321
_pd_proc_ls_prof_echi2           2.0321
loop_
_symmetry_equiv_pos_as_xyz
x,y,z
x+1/2,-y+1/2,-z
-x,y+1/2,-z+1/2
-x+1/2,-y,z+1/2
-x,-y,-z
-x+1/2,y+1/2,z
x,-y+1/2,z+1/2
x+1/2,y,-z+1/2
loop_
_atom_site_label
_atom_site_fract_x
_atom_site_fract_y
_atom_site_fract_z
_atom_site_U_iso_or_equiv
_atom_site_occupancy
_atom_site_adp_type
_atom_site_type_symbol
O1 0.562(2) 0.2799(11) 0.0206(6) 0.0311(8) 1.00000 Uiso O
O2 0.148(2) 0.4015(11) 0.1040(7) 0.0311(8) 1.00000 Uiso O
O3 0.3174(20) 0.1627(10) 0.1518(7) 0.0311(8) 1.00000 Uiso O
O4 0.066(3) 0.4856(10) 0.2849(9) 0.0311(8) 1.00000 Uiso O
K1 0.725(5) -0.005(2) 0.0477(18) 0.039(3) 0.90(2) Uiso K
K2 0.769(3) 0.2578(19) 0.187(2) 0.039(3) 0.90(2) Uiso K
Fe1 0.2475(13) 0.0041(6) 0.1891(6) 0.0188(5) 1.00000 Uiso FE
Ti1 0.2475(13) 0.0041(6) 0.1891(6) 0.0188(5) 0.00000 Uiso TI
Fe2 0.2679(13) 0.2572(7) 0.0650(8) 0.0188(5) 0.80000 Uiso FE
Ti2 0.2679(13) 0.2572(7) 0.0650(8) 0.0188(5) 0.20000 Uiso TI
loop_
_atom_type_symbol
_atom_type_scat_length_neutron
_atom_type_scat_source
O 0.58030 V.F._Sears_Neutron_News_3_26_(1992)
K 0.36700 V.F._Sears_Neutron_News_3_26_(1992)
FE 0.94500 V.F._Sears_Neutron_News_3_26_(1992)
TI -0.34380 V.F._Sears_Neutron_News_3_26_(1992)
loop_
_geom_angle_atom_site_label_1
_geom_angle_atom_site_label_2
_geom_angle_atom_site_label_3
_geom_angle
_geom_angle_site_symmetry_1
_geom_angle_site_symmetry_3
O2 Fe1 O3 106.6(10) 6_545 1_555
O2 Fe1 O4 113.4(12) 6_545 3_545
O2 Fe1 O4 110.3(11) 6_545 6_545
O3 Fe1 O4 112.0(12) 1_555 3_545
O3 Fe1 O4 104.0(11) 1_555 6_545
O4 Fe1 O4 110.2(14) 3_545 6_545
O1 Fe2 O1 108.5(10) 1_555 2_455
O1 Fe2 O2 109.7(10) 1_555 1_555
O1 Fe2 O3 104.2(10) 1_555 1_555
O1 Fe2 O2 102.5(10) 2_455 1_555
O1 Fe2 O3 122.9(11) 2_455 1_555
O2 Fe2 O3 108.7(11) 1_555 1_555
loop_
_geom_bond_atom_site_label_1
_geom_bond_atom_site_label_2
_geom_bond_distance
_geom_bond_site_symmetry_2
K1 O1 3.37(3) 1_555
K1 O1 3.35(3) 2_555
K1 O1 3.66(3) 5_655
K1 O1 2.74(3) 6_645
K1 O2 2.72(3) 2_555
K1 O2 2.52(3) 6_545
K1 O3 3.41(3) 1_555
K1 O3 3.65(3) 5_655
K1 O4 2.92(3) 3_645
K2 O1 2.91(3) 1_555
K2 O2 2.99(2) 1_655
K2 O3 2.82(2) 1_555
K2 O3 3.32(2) 1_655
K2 O3 2.80(3) 8_555
K2 O4 3.44(3) 1_655
K2 O4 3.24(2) 3_645
K2 O4 2.85(2) 8_555
K2 K1 3.48(4) 6_655
K2 K2 3.46(3) 8_455
K2 K2 3.46(3) 8_555
Fe1 O2 1.878(14) 6_545
Fe1 O3 1.926(13) 1_555
Fe1 O4 1.826(18) 3_545
Fe1 O4 1.866(18) 6_545
Fe2 O1 1.819(14) 1_555
Fe2 O1 1.841(15) 2_455
Fe2 O2 1.869(15) 1_555
Fe2 O3 1.769(16) 1_555
