#------------------------------------------------------------------------------
#$Date: 2018-05-02 00:08:23 +0300 (Wed, 02 May 2018) $
#$Revision: 207608 $
#$URL: file:///home/coder/svn-repositories/cod/cif/1/54/93/1549363.cif $
#------------------------------------------------------------------------------
#
# This file is available in the Crystallography Open Database (COD),
# http://www.crystallography.net/
#
# All data on this site have been placed in the public domain by the
# contributors.
#
data_1549363
loop_
_publ_author_name
'Nakamura, K.'
'Fujii, K.'
'Niwa, E.'
'Yashima, M.'
_publ_section_title
;
 Crystal structure and electrical conductivity of BaR2ZnO5 (R=Sm, Gd, Dy,
 Ho, and Er) - a new structure family of oxide-ion conductors
;
_journal_name_full               'Journal of the Ceramic Society of Japan'
_journal_page_first              292
_journal_page_last               299
_journal_volume                  126
_journal_year                    2018
_chemical_formula_sum            'Ba Ho2 O5 Zn'
_chemical_name_common            BaHo2ZnO5
_space_group_IT_number           62
_space_group_name_H-M_alt        'P n m a'
_symmetry_space_group_name_Hall  '-P 2ac 2n'
_symmetry_space_group_name_H-M   'P n m a'
_cell_angle_alpha                90
_cell_angle_beta                 90
_cell_angle_gamma                90
_cell_formula_units_Z            4
_cell_length_a                   12.34773(15)
_cell_length_b                   5.71449(6)
_cell_length_c                   7.07449(5)
_cell_volume                     499.183(9)
_cod_data_source_file            BaHo2ZnO5.cif
_cod_data_source_block           BaHo2ZnO5
_cod_original_formula_sum        'Ba Ho2 Zn O5'
_cod_database_code               1549363
loop_
_space_group_symop_operation_xyz
'x, y, z'
'-x, -y, -z'
'-x+1/2, -y, z+1/2'
'x+1/2, y, -z+1/2'
'-x, y+1/2, -z'
'x, -y+1/2, z'
'x+1/2, -y+1/2, -z+1/2'
'-x+1/2, y+1/2, z+1/2'
loop_
_atom_site_label
_atom_site_occupancy
_atom_site_fract_x
_atom_site_fract_y
_atom_site_fract_z
_atom_site_adp_type
_atom_site_U_iso_or_equiv
_atom_site_type_symbol
Ba1 1.0 0.90033(13) 0.250000 0.9235(2) Uiso 0.0068(4) Ba
Ho1 1.0 0.07445(11) 0.250000 0.3995(2) Uiso 0.00265(16) Ho
Ho2 1.0 0.29203(10) 0.250000 0.1201(2) Uiso 0.00265 Ho
Zn 1.0 0.6496(2) 0.250000 0.6901(4) Uiso 0.0048(7) Zn
O1 1.0 0.4281(12) -0.003(2) 0.1618(14) Uiso 0.0105(16) O
O2 1.0 0.2218(10) 0.504(2) 0.3447(17) Uiso 0.0105 O
O3 1.0 0.0971(13) 0.250000 0.077(2) Uiso 0.0105 O
loop_
_atom_site_aniso_label
_atom_site_aniso_U_11
_atom_site_aniso_U_22
_atom_site_aniso_U_33
_atom_site_aniso_U_12
_atom_site_aniso_U_13
_atom_site_aniso_U_23
Ba1 0.00000 0.00000 0.00000 0.00000 0.00000 0.00000
Ho1 0.00000 0.00000 0.00000 0.00000 0.00000 0.00000
Ho2 0.00000 0.00000 0.00000 0.00000 0.00000 0.00000
Zn 0.00000 0.00000 0.00000 0.00000 0.00000 0.00000
O1 0.00000 0.00000 0.00000 0.00000 0.00000 0.00000
O2 0.00000 0.00000 0.00000 0.00000 0.00000 0.00000
O3 0.00000 0.00000 0.00000 0.00000 0.00000 0.00000
