#------------------------------------------------------------------------------
#$Date: 2019-06-08 12:44:01 +0300 (Sat, 08 Jun 2019) $
#$Revision: 215776 $
#$URL: file:///home/coder/svn-repositories/cod/cif/1/55/12/1551293.cif $
#------------------------------------------------------------------------------
#
# This file is available in the Crystallography Open Database (COD),
# http://www.crystallography.net/
#
# All data on this site have been placed in the public domain by the
# contributors.
#
data_1551293
loop_
_publ_author_name
'Kumar, S.'
'Pal, J.'
'Kaur, S.'
'Malhi, P.S.'
'Singh, M.'
'Babu, P.D.'
'Singh, A.'
_publ_section_title
;
 The structural and magnetic properties, non-Debye relaxation and hopping
 mechanism in PbxNd1-xFeO3 (where x = 0.1, 0.2 and 0.3) solid solutions
;
_journal_name_full               'Journal of Asian Ceramic Societies'
_journal_page_first              133
_journal_page_last               140
_journal_volume                  7
_journal_year                    2019
_chemical_formula_sum            'Fe Nd0.8 O3 Pb0.2'
_chemical_name_common            Nd0.8Pb0.2FeO3
_space_group_IT_number           62
_space_group_name_Hall           '-P 2c 2ab'
_space_group_name_H-M_alt        'P b n m'
_cell_angle_alpha                90
_cell_angle_beta                 90
_cell_angle_gamma                90
_cell_formula_units_Z            4
_cell_length_a                   5.45320
_cell_length_b                   5.58070
_cell_length_c                   7.76630
_cell_volume                     236.349
_cod_data_source_file            Nd0.8Pb0.2FeO3.cif
_cod_data_source_block           Nd08Pb02FeO3
_cod_original_formula_sum        'Nd0.8 Pb0.2 Fe O3'
_cod_database_code               1551293
loop_
_space_group_symop_id
_space_group_symop_operation_xyz
1 x,y,z
2 -x,-y,-z
3 x+1/2,-y+1/2,-z
4 -x+1/2,y+1/2,z
5 -x,-y,z+1/2
6 x,y,-z+1/2
7 -x+1/2,y+1/2,-z+1/2
8 x+1/2,-y+1/2,z+1/2
loop_
_atom_site_label
_atom_site_occupancy
_atom_site_fract_x
_atom_site_fract_y
_atom_site_fract_z
_atom_site_adp_type
_atom_site_B_iso_or_equiv
_atom_site_type_symbol
Nd 0.8000 0.989200 0.045700 0.250000 Biso 0.799000 Nd
Pb 0.2000 0.989200 0.045700 0.250000 Biso 0.799000 Pb
Fe 1.0 0.000000 0.500000 0.000000 Biso 0.408000 Fe
O1 1.0 0.745700 0.302980 0.013700 Biso 0.906000 O
O2 1.0 0.111600 0.504800 0.250000 Biso 0.812000 O
