#------------------------------------------------------------------------------
#$Date: 2019-07-12 07:21:08 +0300 (Fri, 12 Jul 2019) $
#$Revision: 216970 $
#$URL: file:///home/coder/svn-repositories/cod/cif/1/55/20/1552090.cif $
#------------------------------------------------------------------------------
#
# This file is available in the Crystallography Open Database (COD),
# http://www.crystallography.net/. The original data for this entry
# were provided by IUCr Journals, http://journals.iucr.org/.
#
# The file may be used within the scientific community so long as
# proper attribution is given to the journal article from which the
# data were obtained.
#
data_1552090
loop_
_publ_author_name
'Wang, Bin'
'Zou, Xiaodong'
'Smeets, Stef'
_publ_section_title
;
 Automated serial rotation electron diffraction combined with cluster
 analysis: an efficient multi-crystal workflow for structure determination
;
_journal_issue                   5
_journal_name_full               IUCrJ
_journal_page_first
;
;
_journal_paper_doi               10.1107/S2052252519007681
_journal_volume                  6
_journal_year                    2019
_chemical_formula_moiety         'O128 Si64'
_chemical_formula_sum            'O128 Si64'
_chemical_formula_weight         3845.38
_chemical_name_common            Mordenite
_chemical_name_systematic        Si-MOR
_space_group_crystal_system      orthorhombic
_space_group_IT_number           63
_space_group_name_Hall           '-C 2c 2'
_space_group_name_H-M_alt        'C m c m'
_symmetry_space_group_name_Hall  '-C 2c 2'
_symmetry_space_group_name_H-M   'C m c m'
_audit_creation_method           SHELXL-2014/7
_cell_angle_alpha                90
_cell_angle_beta                 90
_cell_angle_gamma                90
_cell_formula_units_Z            1
_cell_length_a                   18.120
_cell_length_b                   20.000
_cell_length_c                   7.700
_cell_measurement_reflns_used    904
_cell_measurement_temperature    293(2)
_cell_measurement_theta_max      1.80
_cell_measurement_theta_min      0.072
_cell_volume                     2790.480
_computing_cell_refinement       'XDS-20180126 (Kabsch, 2018)'
_computing_data_collection       'Instamatic-1.0.0 (Smeets et al., 2018)'
_computing_data_reduction        'XDS-20180126 (Kabsch, 2018)'
_computing_structure_refinement  'SHELXL-2014/7 (Sheldrick, 2014)'
_computing_structure_solution    'SHELXT-2014/5 (Sheldrick, 2013)'
_diffrn_ambient_temperature      293(2)
_diffrn_measured_fraction_theta_full 0.570
_diffrn_measured_fraction_theta_max 0.549
_diffrn_measurement_device_type  'JEOL JEM-2100 LaB6'
_diffrn_measurement_method       'Continuous rotation electron diffraction'
_diffrn_radiation_type           electron
_diffrn_radiation_wavelength     0.0251
_diffrn_reflns_av_R_equivalents  0.1014
_diffrn_reflns_av_unetI/netI     0.1620
_diffrn_reflns_Laue_measured_fraction_full 0.570
_diffrn_reflns_Laue_measured_fraction_max 0.549
_diffrn_reflns_limit_h_max       22
_diffrn_reflns_limit_h_min       -22
_diffrn_reflns_limit_k_max       24
_diffrn_reflns_limit_k_min       -22
_diffrn_reflns_limit_l_max       8
_diffrn_reflns_limit_l_min       -8
_diffrn_reflns_number            1941
_diffrn_reflns_point_group_measured_fraction_full 0.570
_diffrn_reflns_point_group_measured_fraction_max 0.549
_diffrn_reflns_theta_full        0.863
_diffrn_reflns_theta_max         0.911
_diffrn_reflns_theta_min         0.118
_diffrn_source                   'electron microscope'
_exptl_absorpt_coefficient_mu    0.000
_exptl_crystal_density_diffrn    2.288
_exptl_crystal_description       cuboid
_exptl_crystal_F_000             626
_refine_diff_density_max         0.399
_refine_diff_density_min         -0.243
_refine_diff_density_rms         0.059
_refine_ls_extinction_coef       9988(43)
_refine_ls_extinction_expression Fc^*^=kFc[1+0.001xFc^2^\l^3^/sin(2\q)]^-1/4^
_refine_ls_extinction_method     'SHELXL-2014/7 (Sheldrick 2014'
_refine_ls_goodness_of_fit_ref   2.159
_refine_ls_hydrogen_treatment    undef
_refine_ls_matrix_type           full
_refine_ls_number_parameters     44
_refine_ls_number_reflns         904
_refine_ls_number_restraints     0
_refine_ls_restrained_S_all      2.159
_refine_ls_R_factor_all          0.3181
_refine_ls_R_factor_gt           0.2910
_refine_ls_shift/su_max          0.007
_refine_ls_shift/su_mean         0.001
_refine_ls_structure_factor_coef Fsqd
_refine_ls_weighting_details
'w=1/[\s^2^(Fo^2^)+(0.2000P)^2^] where P=(Fo^2^+2Fc^2^)/3'
_refine_ls_weighting_scheme      calc
_refine_ls_wR_factor_gt          0.6105
_refine_ls_wR_factor_ref         0.6472
_reflns_Friedel_coverage         0.000
_reflns_number_gt                555
_reflns_number_total             904
_reflns_threshold_expression     'I > 2\s(I)'
_cod_data_source_file            fc5033.cif
_cod_data_source_block           mordenite_mixed_phase
_cod_original_cell_volume        2790.5
_cod_database_code               1552090
_shelx_shelxl_version_number     2014/7
_shelx_space_group_comment
;
The symmetry employed for this shelxl refinement is uniquely defined
by the following loop, which should always be used as a source of
symmetry information in preference to the above space-group names.
They are only intended as comments.
;
_shelx_res_file
;

    shelx_a13_UCToLit.res created by SHELXL-2014/7


TITL shelx_a.res in Cmcm
REM Old TITL 63

REM SHELXT solution in Cmcm
REM R1 0.413,  Rweak 0.148,  Alpha 0.107,  Orientation as input
REM Formula found by SHELXT:  Si O2

CELL  0.02510  18.1200  20.0000   7.7000   90.000   90.000   90.000
ZERR    1.000   0.0000   0.0000   0.0000    0.000    0.000    0.000
LATT  7
SYMM -X, -Y, 1/2+Z
SYMM -X, Y, 1/2-Z
SYMM X, -Y, -Z
SFAC SI  2.1293 57.7748  2.5333 16.4756         =
         0.8349  2.8796  0.3216  0.3860  0.0000 =
         0.0000  0.0000  0.0000  1.1100 28.0860
SFAC O   0.4548 23.7803  0.9173  7.6220         =
         0.4719  2.1440  0.1384  0.2959  0.0000 =
         0.0000  0.0000  0.0000  0.7300 15.9990
UNIT 64 128
L.S. 10
BOND $H
LIST 6
FMAP 2
PLAN 20
ACTA
WGHT    0.200000
EXTI 9988.342773
FVAR       3.33335
SI1   1    0.914609    0.723236    0.750000    10.50000    0.05108
SI2   1    0.804235    0.689094    0.457036    11.00000    0.04466
SI3   1    0.694584    0.574300    0.540579    11.00000    0.04623
SI4   1    0.584503    0.620330    0.250000    10.50000    0.05066
O1    2    0.500000    0.595977    0.250000    10.25000    0.05626
O2    2    1.000000    0.696564    0.750000    10.25000    0.06311
O3    2    0.722931    0.500000    0.500000    10.50000    0.07423
O4    2    0.759503    0.622850    0.492947    11.00000    0.08700
O5    2    0.829527    0.691636    0.250000    10.50000    0.07802
O6    2    0.673949    0.582401    0.750000    10.50000    0.08123
O7    2    0.750000    0.750000    0.500000    10.50000    0.08515
O8    2    0.875044    0.693050    0.576720    11.00000    0.06755
O9    2    0.905707    0.801448    0.750000    10.50000    0.08456
O10   2    0.624956    0.589454    0.422004    11.00000    0.08194
HKLF 4

REM  shelx_a.res in Cmcm
REM R1 =  0.2910 for     555 Fo > 4sig(Fo)  and  0.3181 for all     904 data
REM     44 parameters refined using      0 restraints

END

WGHT      0.2000      0.0000

REM Highest difference peak  0.399,  deepest hole -0.243,  1-sigma level  0.059
Q1    1   0.8054  0.7324  0.1740  11.00000  0.05    0.30
Q2    1   0.6983  0.6176  0.8056  11.00000  0.05    0.24
Q3    1   0.8038  0.6491  0.1756  11.00000  0.05    0.24
Q4    1   0.8984  0.6886  0.5803  11.00000  0.05    0.22
Q5    1   0.5996  0.5826  0.4347  11.00000  0.05    0.19
Q6    1   0.9135  0.7607  0.8844  11.00000  0.05    0.19
Q7    1   0.6894  0.5329  0.8295  11.00000  0.05    0.18
Q8    1   0.5852  0.6578  0.1056  11.00000  0.05    0.17
Q9    1   0.9094  0.5093  0.7500  10.50000  0.05    0.17
Q10   1   0.9310  0.7279  0.2500  10.50000  0.05    0.16
Q11   1   0.6517  0.5789  0.7500  10.50000  0.05    0.15
Q12   1   0.8978  0.8028  0.2500  10.50000  0.05    0.15
Q13   1   0.5705  0.6182  0.7500  10.50000  0.05    0.14
Q14   1   0.6913  0.6911  0.7500  10.50000  0.05    0.14
Q15   1   0.5000  0.6275  0.1341  10.50000  0.05    0.13
Q16   1   0.5775  0.6961  0.6151  11.00000  0.05    0.12
Q17   1   1.0000  0.6939  0.2500  10.25000  0.05    0.12
Q18   1   0.5000  0.5875  0.7500  10.25000  0.05    0.11
Q19   1   0.7974  0.5133  0.6623  11.00000  0.05    0.11
Q20   1   0.5000  0.6885  0.6739  10.50000  0.05    0.11
;
_shelx_res_checksum              94350
_shelx_hkl_file
;
   0  -2   1 2905.86  506.37
   0   2  -1 2230.63  389.06
   0  -4   2  367.92   68.28
   0   4  -2  294.41   56.68
   0  -6   1 5124.08  892.03
   0  -6   3  511.87   92.66
   0  -6   4  723.23  129.49
   0  -8   2 3410.66  594.87
   0  -8   3  302.29   56.95
   0   8  -3  387.61   71.08
   0  -8   4   79.12   24.02
   0   8  -4   73.67   25.36
   0   8  -5  662.82  126.69
   0   8  -6 1708.03  304.93
   0 -10   1   18.96   21.94
   0 -10   2  168.10   35.95
   0  10  -3   52.36   20.91
   0 -10   4 2475.48  433.56
   0  10  -4 2991.07  523.95
   0 -10   5  207.80   54.42
   0  10  -5  186.66   50.99
   0 -10   6 1295.45  236.17
   0  10  -6 1603.94  286.16
   0 -10   7   39.22   33.27
   0  10  -7   29.43   30.00
   0 -12   1  200.09   44.69
   0  12  -1  209.04   53.72
   0 -12   2 4228.27  736.71
   0 -12   3   98.59   30.26
   0 -12   5 4150.61  726.47
   0  12  -5 5256.76  918.46
   0 -12   6   71.68   30.58
   0  12  -6   71.14   31.33
   0 -12   7  367.92   75.34
   0  12  -7  420.94   83.86
   0 -12   8   81.87   35.03
   0 -14   1  184.88   48.60
   0 -14   1  465.59  140.82
   0 -14   2   65.85   30.48
   0 -14   3 1862.28  329.53
   0  14  -3 1869.82  330.98
   0 -14   4  345.22   69.90
   0 -14   5  989.65  178.24
   0 -14   6    8.64   25.62
   0  14  -6    1.78   27.42
   0 -14   7    5.20   22.78
   0  14  -7   16.11   25.43
   0 -16   1   57.01   23.10
   0  16  -2 2465.24  434.16
   0 -16   3  203.16   48.51
   0  16  -3  196.64   50.74
   0 -16   4 1382.81  246.64
   0  16  -5  420.13   84.89
   0  16  -6   25.11   20.97
   0  16  -7   60.46   29.71
   0 -18   1    3.19   12.46
   0 -18   2  241.08   54.69
   0  18  -2  205.00   50.47
   0  18  -2  308.87   95.51
   0 -18   3  290.48   62.51
   0 -18   4   66.88   28.15
   0  18  -4   82.79   30.06
   0 -18   5   26.58   27.75
   0 -20   2   18.33   24.28
   0 -20   2   79.50   28.83
   0 -20   3  162.71   40.15
   0  20  -3  120.32   35.91
   0 -20   4  180.99   40.47
   0  20  -4  253.42   54.04
   0  22  -2   14.16   30.81
   0 -22   3   19.40   20.73
   0  22  -4   18.12   24.57
   0  24  -2    3.87   26.26
   0  24  -3   29.98   24.66
   1   3  -2 2830.89  494.02
  -1  -3   2 3021.81  527.40
  -1  -5   1   -1.77   14.56
   1  -5   2  290.37   55.44
   1   5  -2  319.76   60.08
  -1  -5   2  295.87   55.50
   1  -5   3   93.19   28.18
   1   5  -3   35.28   25.05
  -1   5  -3   56.84   26.73
   1  -7   1 1719.89  301.26
  -1  -7   1 2268.93  396.62
  -1  -7   2 2306.13  402.60
   1  -7   3  309.62   59.38
  -1  -7   3  255.96   50.23
  -1   7  -3  279.37   54.58
   1  -7   4  551.73  100.69
   1   7  -4  478.27   88.50
  -1  -7   4  488.25   89.64
  -1   7  -4  541.48   98.80
   1  -7   5  913.07  167.99
   1   7  -5  878.01  161.95
  -1   7  -5  880.17  161.68
   1  -9   1  428.65   78.79
   1   9  -1  712.98  214.27
  -1  -9   1  444.03   81.06
  -1   9  -1  588.40  177.43
   1  -9   2   24.96   17.22
  -1  -9   2   24.84   16.59
  -1   9  -2   21.10   17.09
   1   9  -4    4.97   22.36
  -1  -9   4   25.97   25.42
  -1   9  -4    7.19   23.72
   1  -9   5  248.09   62.99
   1   9  -5  231.53   61.16
  -1  -9   5  237.47   60.73
   1  -9   6   41.56   38.72
  -1  -9   6   43.17   39.44
   1 -11   2  496.34   90.12
   1  11  -2  479.56   87.91
  -1 -11   2  427.68   78.53
  -1  11  -2  538.14   97.67
   1 -11   4  237.03   53.79
   1  11  -4  162.98   40.10
  -1 -11   4  194.91   47.10
   1 -11   5  866.14  158.34
  -1 -11   5  715.14  130.90
  -1  11  -5  858.06  155.86
   1 -11   6   69.73   37.97
  -1 -11   6  137.15   43.40
  -1 -11   7   44.52   35.29
  -1  11  -7   99.94   37.46
   1  11  -8    7.24   30.75
  -1  11  -8    2.16   29.04
   1 -13   1   15.29   26.60
   1  13  -1   19.84   22.99
  -1 -13   1    7.95   24.27
  -1  13  -1   15.11   36.46
  -1  13  -1  103.01   33.83
   1 -13   2 5350.60  933.03
   1  13  -2 4789.17  835.41
  -1 -13   2 4913.21  857.52
  -1  13  -2 4643.01  810.06
   1  13  -3  985.88  179.11
  -1  13  -3  888.26  162.39
   1  13  -4  227.11   58.95
  -1  13  -4  145.30   44.19
   1  13  -5   57.76   31.87
  -1 -13   5   74.16   37.75
  -1  13  -5   84.57   37.15
   1 -13   6   49.07   25.42
  -1 -13   6    4.88   22.81
   1 -13   7   34.68   26.86
  -1 -13   7   25.09   29.26
  -1  13  -7   32.76   25.64
   1  15  -1   -0.24   11.84
  -1  15  -1    0.18   48.71
  -1  15  -1    0.65   11.77
   1 -15   3    5.54   28.96
  -1 -15   3    6.86   27.06
  -1  15  -3   30.71   34.63
  -1  15  -4  215.73   55.33
   1 -15   6   10.15   25.76
  -1 -15   6    6.44   25.61
   1 -15   7   20.19   22.21
  -1 -15   7   -1.28   21.09
   1 -17   1    0.78   47.23
   1 -17   1   34.37   17.40
  -1 -17   1    5.92   45.40
  -1 -17   1   32.29   16.68
   1 -17   2   -0.80   27.22
   1  17  -2    6.73   28.49
  -1 -17   2   11.34   28.18
  -1  17  -2  -13.20   28.66
   1 -17   3    6.51   30.50
   1  17  -3   26.84   32.56
  -1 -17   3   20.04   31.70
  -1  17  -3    7.60   29.28
   1  17  -4   67.31   29.12
  -1  17  -4   67.52   29.11
   1 -17   5  208.77   46.83
   1  17  -5  323.11   66.23
  -1 -17   5  256.77   58.52
   1 -17   6    8.83   16.09
  -1 -17   6    5.85   18.22
   1 -19   2    1.72   27.74
   1 -19   2    7.10   12.73
   1  19  -2    5.87   32.34
  -1 -19   2   10.47   27.65
  -1 -19   2    6.57   12.12
  -1  19  -2   -5.64   31.72
   1  19  -3  367.22   72.97
  -1  19  -3  369.59   72.65
   1 -19   4    2.98   22.40
   1  19  -4    5.61   21.55
  -1 -19   4    6.27   22.82
  -1  19  -4    6.80   24.66
   1  19  -5   45.45   24.15
  -1  19  -5   18.48   20.86
  -1  19  -6    1.23   28.75
   1 -21   2  103.44   37.34
   1  21  -2   46.73   29.31
  -1 -21   2   88.39   35.69
  -1  21  -2   55.39   32.68
   1 -21   3    1.20   20.60
  -1 -21   3    0.83   21.26
   1  21  -4   12.85   25.38
  -1  21  -4   16.79   23.30
   1  21  -5    7.59   25.32
  -1  21  -5    0.32   23.56
   1  23  -2   22.47   28.00
  -1  23  -2   20.00   31.18
   1  23  -3    6.59   22.91
  -1  23  -3    8.26   20.52
   2  -2   1  794.42  141.20
   2   2  -1  921.70  162.17
  -2  -2   1 1007.99  176.84
   2   4  -1 6239.93 1086.19
   2  -4   2  406.11   74.53
  -2  -4   2  405.14   74.05
   2  -4   3 1101.83  195.07
  -2   4  -3 1093.74  193.45
   2   6  -1 3686.25  642.87
  -2  -6   1 3908.45  681.16
   2  -6   3  625.07  111.91
   2   6  -3  492.07   89.26
  -2   6  -3  537.38   97.19
  -2  -6   4   78.04   28.10
   2   8  -2  191.78   40.07
  -2  -8   2  166.16   36.97
   2  -8   3  127.01   28.66
   2   8  -3   77.61   21.71
  -2   8  -3  147.89   33.47
   2  -8   4   17.43   18.92
  -2   8  -4   20.26   21.72
  -2   8  -5  187.52   53.68
  -2   8  -6  885.56  163.36
   2 -10   1   -2.17   22.15
  -2 -10   1    8.90   19.66
  -2 -10   1   66.07   26.24
  -2 -10   2 2512.15  438.47
  -2  10  -2 3431.16  599.18
   2 -10   3   60.62   21.91
  -2  10  -3   74.97   25.56
   2 -10   4   31.25   26.79
   2  10  -4   24.46   29.61
  -2 -10   4   28.54   28.17
   2 -10   5  183.58   48.72
   2  10  -5  219.56   55.17
  -2  10  -5  204.51   51.81
   2 -10   6  192.43   54.47
   2  10  -6  316.74   71.08
  -2  10  -6  173.17   49.16
   2 -10   7   35.70   31.13
   2  10  -7   27.08   32.89
   2 -12   1  148.91   37.97
  -2 -12   1  139.74   35.50
  -2  12  -1  135.21   45.03
   2 -12   2  512.79   93.30
  -2 -12   2  499.14   91.20
   2 -12   3 3426.84  599.72
  -2 -12   3 2905.86  509.12
   2 -12   5 1058.69  191.94
   2  12  -5 1364.48  244.37
  -2 -12   5 1259.32  226.52
  -2  12  -5  978.32  177.33
   2 -12   6   85.43   31.97
   2  12  -6   79.87   32.08
  -2  12  -6   88.45   32.28
   2 -12   7  573.83  108.67
   2  12  -7  405.52   81.44
  -2 -12   7  415.06   84.51
  -2  12  -7  566.28  106.57
   2 -12   8    9.82   28.85
  -2 -12   8   13.20   29.68
   2 -14   1  280.82   86.18
  -2 -14   1  261.78   80.14
   2 -14   2   36.12   32.38
  -2 -14   2  105.01   37.51
   2 -14   3  751.28  140.01
   2  14  -3  770.69  142.55
  -2 -14   3  735.64  137.31
  -2  14  -3  751.82  139.36
   2 -14   4   42.07   30.64
  -2 -14   4   32.50   30.16
   2 -14   5  296.79   60.46
  -2 -14   5  312.75   63.59
   2 -14   6    5.43   24.67
   2  14  -6    5.16   26.61
  -2  14  -6   10.12   26.35
   2 -14   7  103.23   31.57
   2  14  -7   74.80   31.02
  -2  14  -7  111.96   33.70
   2 -16   1   41.45   20.40
  -2 -16   1   44.83   19.08
   2  16  -2 2175.61  383.72
  -2  16  -2 1847.18  326.88
   2 -16   3  156.34   41.50
   2  16  -3  171.02   47.75
  -2 -16   3  161.04   45.07
  -2  16  -3  158.83   44.24
   2 -16   4 1421.65  253.53
  -2 -16   4 1341.83  241.89
  -2  16  -5   86.94   31.40
   2 -16   6   28.31   21.16
   2  16  -6   32.35   22.62
  -2  16  -6   50.84   21.43
   2  16  -7   63.32   30.99
  -2  16  -7   37.27   26.77
   2 -18   1    5.02   11.60
  -2 -18   1   -0.12   12.31
   2 -18   2   93.63   34.63
   2  18  -2  119.89   39.47
   2  18  -2  187.03   59.65
  -2 -18   2   80.74   34.83
  -2  18  -2   91.47   34.47
  -2  18  -2  151.49   49.36
   2 -18   3  179.48   45.15
  -2 -18   3  192.97   46.73
   2 -18   4  229.86   51.20
   2  18  -4  232.77   51.81
  -2 -18   4  327.05   67.09
  -2  18  -4  223.50   48.96
  -2 -18   5   28.28   25.84
   2 -20   2   97.89   33.82
  -2 -20   2   82.89   29.71
   2 -20   3   90.34   30.14
   2  20  -3   56.09   28.27
  -2 -20   3   68.93   27.87
  -2  20  -3   73.89   27.17
   2 -20   4    4.73   18.89
   2  20  -4   15.41   25.48
  -2 -20   4   12.80   20.25
  -2  20  -4   15.89   20.93
   2  22  -2   11.16   29.22
  -2  22  -2    5.58   30.24
   2 -22   3   39.06   23.86
  -2 -22   3   55.28   23.77
   2  22  -4   -0.97   24.36
  -2  22  -4   12.71   21.72
   2  24  -2   -0.25   25.90
  -2  24  -2    0.52   29.63
   2  24  -3   13.66   24.76
  -2  24  -3   44.82   28.58
   3  -3   1  554.43   99.45
   3   3  -1  616.44  108.89
  -3  -3   1  527.67   93.68
   3  -3   2 6186.01 1076.48
  -3   3  -2 5970.28 1038.73
   3  -5   1  324.46   60.89
   3   5  -1  267.77   50.02
  -3  -5   1  294.47   54.58
  -3   5  -1  342.04   62.56
   3  -5   2 4355.01  758.28
   3   5  -2 6914.09 1203.22
  -3  -5   2 6353.19 1105.61
  -3   5  -2 5112.21  889.34
   3  -5   3  103.93   29.26
  -3   5  -3  101.66   31.44
  -3   5  -4  526.54   97.40
   3  -7   1  275.10   52.20
   3   7  -1  225.60   43.65
  -3  -7   1  232.56   44.01
   3   7  -2  208.45   41.40
  -3  -7   2  209.26   42.50
   3  -7   3  334.33   63.32
   3   7  -3  268.90   52.95
  -3  -7   3  335.24   62.99
  -3   7  -3  313.94   60.24
   3  -7   4  174.09   39.44
   3   7  -4  248.42   50.54
   3  -7   5  800.35  148.43
   3  -9   1  840.26  252.94
   3   9  -1 1355.32  238.22
   3   9  -1 1222.64  366.03
  -3  -9   1  986.95  174.09
  -3   9  -1 1053.84  187.03
  -3   9  -1 1161.16  347.97
   3  -9   2   16.34   18.13
   3   9  -2   50.49   18.31
  -3  -9   2   46.45   19.62
  -3   9  -2   16.00   16.28
   3  -9   4   58.62   26.70
  -3  -9   4   64.18   25.67
  -3   9  -4   54.09   28.79
   3  -9   5 3967.78  695.18
   3   9  -5 4180.28  732.40
  -3  -9   5 3745.58  656.89
   3   9  -6   22.51   35.11
  -3  -9   6   13.42   38.49
  -3   9  -7  303.69   65.47
   3  11  -1  310.43   59.27
   3 -11   2   54.90   21.36
   3  11  -2   26.72   17.25
  -3 -11   2   31.95   16.47
  -3  11  -2   51.03   22.85
  -3 -11   3  876.93  157.75
   3 -11   4    9.61   24.67
   3  11  -5  185.69   50.34
  -3 -11   5  178.19   45.85
  -3  11  -5  232.18   54.15
   3 -11   6   43.26   33.20
   3  11  -6   75.50   37.55
  -3 -11   6   42.34   34.54
  -3  11  -6   44.88   29.20
  -3 -11   7   70.00   31.64
  -3  11  -7  121.78   40.03
   3 -11   8   16.28   29.40
   3  11  -8   12.26   31.51
  -3  11  -8    4.67   25.52
   3 -13   1   22.53   29.70
   3  13  -1    1.70   25.15
  -3 -13   1   10.54   25.64
  -3  13  -1   11.72   38.29
  -3  13  -1   79.77   27.51
   3 -13   2 4923.99  859.13
   3  13  -2 4514.11  788.48
  -3 -13   2 6239.93 1088.35
  -3  13  -2 4346.38  758.28
   3 -13   3  367.54   77.28
  -3  13  -3  301.86   67.15
  -3  13  -4 1468.56  260.87
  -3 -13   5   36.12   31.79
  -3  13  -5   33.18   29.94
   3 -13   6  150.64   39.29
   3  13  -6  117.52   35.30
  -3 -13   6  142.76   38.59
  -3  13  -6  175.71   43.57
   3 -13   7   16.05   23.35
  -3 -13   7    5.39   28.65
  -3  13  -7    6.44   25.63
   3 -15   1   -7.30   41.47
   3  15  -1    0.77   11.39
  -3  15  -1    7.51   52.54
  -3  15  -1    0.96   11.39
  -3 -15   3   50.48   28.65
  -3  15  -3   50.94   29.57
  -3  15  -4  372.88   74.59
   3 -15   6   20.97   24.56
   3  15  -6   20.26   24.88
  -3 -15   6   15.20   26.19
  -3  15  -6   12.59   20.10
   3 -15   7   20.42   21.50
   3  15  -7    5.60   22.68
  -3 -15   7   11.95   20.70
  -3  15  -7   30.23   25.82
   3 -17   1   78.85   28.56
  -3 -17   1    6.69   44.27
  -3 -17   1   65.69   24.28
   3 -17   2    1.70   26.51
   3  17  -2   -3.79   30.22
  -3 -17   2   -5.52   29.59
  -3  17  -2   -4.68   27.75
  -3  17  -2    3.77   13.19
   3 -17   3  291.99   64.56
   3  17  -3  338.27   70.76
  -3 -17   3  369.70   76.21
  -3  17  -3  265.88   57.33
   3  17  -4   50.72   30.36
  -3  17  -4   59.27   28.54
   3 -17   5  875.31  158.23
   3  17  -5 1090.50  195.50
  -3 -17   6   32.34   21.09
   3 -19   2    5.48   25.67
   3 -19   2   12.80   13.44
   3  19  -2    5.97   29.25
  -3 -19   2   -1.23   25.37
  -3 -19   2   10.84   12.19
  -3  19  -2    5.07   29.55
   3  19  -3  359.34   71.89
  -3  19  -3  343.23   68.44
   3 -19   4   10.62   21.18
   3  19  -4    3.69   21.28
  -3 -19   4   -0.94   22.85
   3  19  -5   33.34   27.94
  -3  19  -5   26.98   26.03
  -3  19  -6    7.94   22.75
   3 -21   2  146.65   41.91
   3  21  -2   87.42   32.84
  -3 -21   2  138.29   40.35
  -3  21  -2   49.82   30.76
   3 -21   3    1.41   20.67
  -3 -21   3    8.93   22.02
   3  21  -4   61.81   27.69
  -3  21  -4   67.31   27.43
   3  21  -5   23.40   28.48
  -3  21  -5   50.75   28.48
   3  23  -2   17.46   26.45
  -3  23  -2   21.01   30.97
   3  23  -3    7.53   23.53
  -3  23  -3    2.76   18.35
   4  -2   1  755.59  133.27
  -4  -2   1  587.86  104.04
  -4   2  -1  773.38  136.40
   4  -4   1  760.44  135.32
   4   4  -2  167.24   35.77
  -4  -4   2  142.55   31.64
   4  -4   3 5576.57  970.77
   4   6  -1 1305.69  229.05
  -4  -6   1 1382.81  242.70
  -4   6  -1 1753.33  307.20
  -4  -6   2   61.10   17.09
   4  -6   3  480.48   86.88
  -4  -6   3  616.44  110.08
   4   6  -4   19.41   22.00
  -4   6  -4   21.88   25.09
   4   8  -1   71.95   22.79
   4   8  -2 3841.04  669.29
   4  -8   3  823.54  146.00
  -4  -8   3  707.05  125.61
   4  -8   4  210.34   45.70
  -4  -8   4  221.93   47.19
  -4   8  -4  254.45   55.39
   4  -8   5   96.32   48.29
  -4  -8   5   86.24   43.82
  -4   8  -5   96.48   46.33
   4  -8   6   92.12   44.90
  -4   8  -6   98.32   40.20
   4 -10   1    7.25   22.72
  -4 -10   1    1.44   17.54
  -4 -10   1   18.49   14.65
  -4 -10   2  195.29   38.42
  -4  10  -2  186.71   38.39
   4 -10   3   59.38   24.62
   4  10  -4   86.18   37.13
  -4 -10   4  127.28   41.57
  -4  10  -4   98.64   33.33
   4 -10   5   38.19   32.19
  -4 -10   5   34.27   30.02
  -4  10  -5   32.04   27.68
   4 -10   6  350.29   74.16
   4  10  -6  443.65   93.52
  -4  10  -6  352.67   74.21
   4 -10   7   32.38   30.96
   4  10  -7   22.39   33.10
  -4  10  -8   20.92   31.61
   4 -12   1   78.85   30.07
   4  12  -1  144.33   35.38
  -4  12  -1  114.28   41.92
   4 -12   2  594.87  108.94
  -4 -12   2  638.56  115.15
   4  12  -3 2259.22  397.86
   4 -12   5   25.30   33.90
   4  12  -5   34.47   36.75
  -4 -12   5   19.66   36.39
  -4  12  -5   24.81   34.72
   4 -12   6    6.54   23.00
   4  12  -6    4.63   26.37
  -4  12  -6    6.48   21.97
   4 -12   7  166.16   43.41
   4  12  -7  153.92   44.25
  -4  12  -7  161.04   43.16
   4  12  -8    2.85   29.62
  -4 -12   8   15.95   30.94
   4 -14   1   22.48   33.85
  -4 -14   1   81.81   38.25
   4 -14   2  210.77   57.22
  -4 -14   2  201.98   50.81
   4 -14   3 4991.95  872.62
  -4 -14   3 5141.34  898.51
  -4  14  -3 4648.40  813.30
  -4 -14   4  113.26   39.49
   4  14  -5   30.05   22.43
  -4 -14   5   61.86   24.83
   4 -14   6   13.54   24.26
   4  14  -6   -2.68   25.39
  -4  14  -6   15.94   25.32
   4 -14   7  117.84   33.28
   4  14  -7   70.97   30.16
  -4  14  -7   90.44   28.18
  -4 -16   1   58.03   22.28
  -4  16  -1   18.83   14.99
  -4 -16   2  723.23  134.51
  -4  16  -2  798.73  145.19
   4 -16   3   76.53   35.07
   4  16  -3   48.66   30.06
  -4  16  -3   79.01   35.69
   4 -16   4  767.99  142.92
  -4  16  -5   21.91   26.66
   4 -16   6   97.89   28.48
   4  16  -6   85.16   28.22
  -4 -16   6   92.66   30.27
   4  16  -7   13.12   27.46
  -4 -16   7    4.37   23.62
  -4  16  -7    8.10   24.77
   4 -18   1    0.74   49.61
   4 -18   1    1.13   10.59
   4 -18   2   72.27   31.30
   4  18  -2  146.32   47.74
  -4 -18   2   81.38   32.57
  -4  18  -2   76.58   31.02
  -4  18  -2  117.90   39.67
   4 -18   3   92.39   31.42
  -4 -18   3  104.52   33.41
  -4  18  -3  101.50   32.06
   4 -18   4  174.25   42.84
  -4  18  -4  145.89   37.38
  -4 -18   5    7.56   22.95
  -4  20  -1   -0.47    7.73
   4 -20   2   87.64   31.14
  -4 -20   2  155.75   49.93
   4 -20   3   23.34   22.69
   4  20  -3   37.86   25.94
  -4 -20   3   24.60   25.27
  -4  20  -3   18.77   20.77
   4 -20   4   47.52   23.31
  -4 -20   4   42.02   23.30
  -4  20  -4   50.46   25.44
   4  22  -2    2.62   27.00
  -4  22  -2    7.62   30.16
  -4 -22   3   85.64   29.93
   4  22  -4    9.11   25.85
  -4  22  -4    1.97   22.92
   4  24  -2   -0.77   27.80
  -4  24  -2    5.84   31.72
  -5   1  -1 9535.19 1658.41
   5  -3   1  118.65   26.62
   5   3  -1   75.02   19.17
  -5  -3   1   74.80   17.86
   5  -3   2 2737.05  477.57
   5  -5   1  308.01   57.22
   5   5  -1  249.28   45.93
  -5  -5   1  255.63   47.15
  -5   5  -1  294.31   54.53
   5  -5   2 1609.87  281.58
  -5  -5   2 1339.67  234.50
   5  -5   3  205.70   42.94
   5   5  -3  169.29   37.42
  -5  -5   3  202.35   41.98
   5  -5   4  755.59  135.75
  -5   5  -4  742.65  133.49
   5  -7   1   78.96   23.03
   5   7  -1  125.34   26.71
  -5  -7   1   95.30   21.56
   5   7  -2  139.96   29.81
   5  -7   3 1491.76  261.73
   5   7  -3 1250.69  219.99
  -5  -7   3 1373.11  240.81
   5   7  -4  878.01  158.29
  -5   7  -4  854.29  153.38
   5  -7   5  329.74   72.27
   5  -9   1  753.97  134.62
   5  -9   1  697.34  210.34
   5   9  -1 1140.67  201.00
   5   9  -1 1067.31  319.60
  -5   9  -1  931.41  165.89
  -5   9  -1 1432.98  429.03
   5  -9   2  251.22   48.86
   5   9  -2  244.80   46.53
  -5   9  -2  280.34   53.35
  -5  -9   3 5382.42  937.34
   5  -9   4   32.79   31.72
   5   9  -4   28.29   27.36
  -5  -9   4   43.66   29.47
  -5   9  -4   25.28   31.86
   5   9  -5 4202.38  734.56
  -5  -9   5 3875.02  679.00
  -5   9  -5 4723.91  825.16
  -5   9  -6   87.86   38.06
  -5   9  -7  668.21  123.56
   5  11  -1  458.85   83.86
  -5  11  -1  413.71   83.00
   5 -11   2   10.64   19.69
   5  11  -2    8.03   16.01
  -5 -11   2    5.33   14.17
  -5  11  -2   22.43   20.79
  -5 -11   3  734.02  132.78
  -5  11  -3  634.78  115.74
   5  11  -4  113.53   36.15
   5 -11   5  130.36   43.29
   5  11  -5   67.09   38.51
  -5 -11   5   75.56   36.32
  -5  11  -5  174.25   47.21
   5  11  -6   84.62   36.26
  -5 -11   6  111.59   37.35
  -5  11  -6  131.49   36.74
   5 -11   8   18.50   34.59
  -5  11  -8   22.89   30.35
   5 -13   1   60.19   36.11
  -5 -13   1  102.52   38.03
  -5  13  -1   13.44   32.03
  -5  13  -1   87.21   29.72
   5 -13   2 1184.88  212.12
   5  13  -2 1418.41  251.38
   5 -13   3 1019.86  185.74
   5  13  -3  971.85  178.08
  -5  13  -3  879.63  161.47
   5 -13   4 5727.58  999.90
  -5  13  -4 6639.03 1157.93
   5 -13   5   49.27   26.07
  -5 -13   5   43.13   29.90
  -5  13  -5   63.10   24.87
   5  13  -6   89.96   32.54
  -5 -13   6   72.70   28.68
  -5  13  -6  158.61   40.48
   5  13  -7   36.20   33.34
  -5 -13   7   24.46   28.01
  -5  13  -7   36.35   23.80
   5 -15   1  -13.06   41.40
  -5  15  -1    0.27   57.06
  -5  15  -1   -0.97   11.58
  -5 -15   3   12.31   26.92
  -5  15  -3   19.05   28.26
  -5  15  -4  262.11   58.25
   5 -15   6  118.00   34.13
   5  15  -6   97.24   33.21
  -5 -15   6   96.92   32.83
  -5  15  -6   85.48   26.57
   5  15  -7   17.09   26.00
  -5 -15   7   15.06   25.35
  -5  15  -7   17.99   25.26
   5 -17   1  164.60   52.84
  -5 -17   1    5.38   45.39
  -5 -17   1   77.77   27.29
   5 -17   2   -6.13   26.38
   5  17  -2   14.02   34.87
  -5 -17   2   14.71   31.13
  -5  17  -2    4.82   26.18
  -5  17  -2    3.27   12.38
   5 -17   3 1282.50  229.92
  -5 -17   3 1328.89  237.41
  -5  17  -3 1107.22  199.44
  -5  17  -4   63.59   29.64
   5 -17   5  962.14  173.55
   5  17  -5  968.08  174.52
  -5 -17   6    5.65   18.84
   5 -19   2    5.07   24.82
   5 -19   2   19.14   14.45
  -5 -19   2    7.03   23.21
  -5 -19   2    5.53   10.78
  -5  19  -2   10.35   27.37
   5  19  -3  573.29  107.49
  -5  19  -3  431.35   82.89
   5 -19   4    1.98   20.81
   5  19  -4   21.97   23.03
  -5 -19   4   13.86   22.91
   5 -21   2  129.22   40.60
   5  21  -2  167.29   45.75
  -5 -21   2  125.39   38.87
   5 -21   3   13.26   22.01
  -5 -21   3    5.34   23.42
   5  21  -4   24.78   24.46
  -5  21  -4   23.09   24.35
   5  23  -2    4.25   24.44
  -5  23  -2   32.83   30.40
   5  23  -3    9.65   25.88
  -5  23  -3    7.65   18.98
   6   0   0 4725.52  828.40
   6  -2   1 1332.66  233.42
  -6   2  -1 1413.56  246.91
   6  -2   2 1033.34  182.72
  -6   2  -2  934.64  165.08
   6  -4   1 2946.85  513.54
   6   4  -1 2727.88  475.30
  -6  -4   1 2640.51  460.04
  -6   4  -1 2340.65  408.05
   6  -4   2   86.83   24.52
   6   4  -2   64.07   20.45
   6   6  -1 2229.55  388.63
  -6  -6   1 2401.59  418.51
  -6   6  -1 2630.27  459.28
   6   6  -2   19.83   12.69
  -6  -6   2   24.51   14.23
  -6   6  -2   28.79   16.66
   6   6  -3  547.41   98.16
  -6  -6   3  516.94   93.03
  -6   6  -3  461.87   84.35
  -6   6  -5 1419.49  253.85
  -6   8  -2 1469.10  258.06
   6   8  -3  230.99   44.75
  -6  -8   3  277.59   52.54
   6  -8   4 5194.20  906.06
  -6  -8   4 6854.76 1194.59
   6  -8   5   83.70   40.32
   6   8  -5  118.65   41.43
  -6  -8   5  110.18   43.91
  -6   8  -5   66.01   38.15
   6  -8   6  182.45   51.19
  -6   8  -6  205.75   51.73
   6 -10   1   22.99   22.74
  -6 -10   1   56.63   20.54
  -6 -10   1   30.76   15.42
   6  10  -2   41.51   17.39
  -6 -10   2   47.28   17.02
  -6  10  -2   25.66   18.13
   6 -10   3   18.52   25.65
   6  10  -4  162.49   46.02
  -6  10  -4  128.85   38.71
   6 -10   5   84.24   34.46
  -6 -10   5  124.37   42.53
   6 -10   6   73.62   33.66
  -6 -10   6   43.44   31.32
  -6  10  -6   87.32   33.50
   6 -10   7   15.75   27.27
   6  10  -7    1.88   36.24
  -6  10  -8   14.03   28.49
   6 -12   1  113.85   38.08
   6  12  -1   81.01   26.24
  -6  12  -1  124.15   48.37
  -6 -12   2 1095.90  194.64
  -6  12  -2  941.66  168.43
   6  12  -3  912.53  165.08
  -6 -12   4 1265.78  224.90
   6 -12   5   46.41   32.63
   6  12  -5   24.90   30.32
   6 -12   6  173.77   42.92
  -6 -12   6  187.84   47.23
  -6  12  -6  228.14   50.67
   6 -12   7   95.08   34.38
   6  12  -7   58.41   32.83
   6 -14   1   72.11   48.00
   6  14  -1  543.64  164.06
  -6 -14   1  116.17   47.64
   6 -14   2  312.64   70.06
  -6 -14   2  556.57  106.73
   6 -14   3 1214.01  216.75
   6  14  -3 1299.76  231.32
  -6 -14   3 1341.83  238.28
   6  14  -4   40.41   30.67
   6  14  -5   24.04   22.85
   6 -14   6   14.00   24.58
   6  14  -6   22.41   27.69
  -6 -14   6   21.46   21.92
  -6  14  -6   20.34   22.96
   6 -14   7   86.18   31.28
   6  14  -7   38.10   28.02
  -6 -14   7   64.61   28.92
  -6  14  -7   81.81   27.18
  -6 -16   1   69.79   25.03
  -6  16  -1   29.13   16.59
  -6 -16   2   76.37   29.27
  -6  16  -2  112.67   34.74
   6 -16   3   34.59   28.97
   6  16  -3   21.30   29.09
  -6  16  -3   82.89   32.83
   6  16  -4  182.72   46.86
  -6  16  -5  143.09   37.05
   6 -16   6   39.21   22.21
   6  16  -6   22.94   21.95
  -6 -16   6   30.81   24.36
   6 -18   1   -0.77   40.69
   6 -18   1   17.00   12.53
   6 -18   2   78.31   30.61
   6  18  -2  198.58   62.51
  -6 -18   2  106.62   32.56
  -6  18  -2  130.52   43.16
   6 -18   3   69.63   29.22
  -6 -18   3   56.31   28.99
  -6  18  -3   80.74   28.37
   6 -18   4  559.81  104.20
  -6  18  -4  523.36   97.46
  -6 -18   5   44.51   26.22
  -6 -18   6  139.96   38.67
  -6  20  -1    2.36    8.12
   6 -20   2   33.99   26.32
   6 -20   2  113.47   38.35
  -6 -20   2   81.98   28.72
  -6 -20   2  142.11   45.75
   6 -20   3   87.80   30.87
   6  20  -3   42.81   27.22
  -6 -20   3   37.69   26.98
  -6  20  -3   27.38   23.13
  -6 -20   4  109.00   30.70
  -6  20  -4  112.61   32.29
   6  22  -2    1.18   25.54
  -6  22  -2   17.90   29.25
  -6 -22   3   36.93   24.37
   6  22  -4    5.37   27.36
  -6  22  -4    6.02   23.30
  -7   1  -1  477.62   85.54
   7   3  -1  417.87   74.43
  -7   3  -2 3153.41  549.57
   7  -5   1   19.48   15.95
   7   5  -1   29.97   11.91
  -7  -5   1   29.07   12.90
  -7   5  -1   12.88   17.02
   7   5  -2   23.46   14.58
  -7  -5   2   14.14   11.39
   7   5  -3  173.23   38.13
  -7   5  -3  243.83   48.70
   7  -5   4  560.35  103.87
   7   7  -1  355.95   63.80
  -7  -7   1  578.15  102.31
  -7   7  -1  385.02   71.35
  -7   7  -2 1409.24  247.55
   7  -7   3   41.23   21.99
   7   7  -3   20.63   16.10
  -7  -7   3   20.90   15.77
  -7   7  -3   45.91   19.07
   7  -7   4  243.24   56.41
  -7  -7   4  304.55   64.34
  -7   7  -4  317.82   66.23
  -7   7  -6  124.59   46.19
   7  -9   1  562.51  101.50
   7  -9   1  629.39  190.06
   7   9  -1  950.83  284.92
  -7   9  -1  468.23   86.51
  -7   9  -1 1225.34  367.33
   7  -9   2   39.14   17.74
   7   9  -2   61.37   19.46
  -7   9  -2   28.31   16.96
  -7  -9   3 2463.62  430.60
  -7   9  -3 2917.72  510.14
   7  -9   4   40.63   34.02
   7   9  -4   27.59   28.89
  -7  -9   4   36.87   32.93
  -7   9  -4   30.58   30.21
   7  -9   5 1416.26  253.10
   7   9  -5 1626.59  288.27
  -7   9  -5 1710.18  302.24
   7   9  -6   10.13   30.02
  -7   9  -6   31.72   28.92
   7  -9   7  127.12   41.81
  -7   9  -7   92.71   32.42
   7  11  -1  301.86   61.59
  -7  11  -1  352.07   74.86
   7 -11   2  209.90   45.65
   7  11  -2  186.33   39.88
  -7  11  -2  221.34   47.75
  -7 -11   3  478.54   91.58
  -7  11  -3  457.61   90.28
  -7 -11   4   62.78   29.11
   7 -11   5  210.17   53.08
   7  11  -5   86.13   33.45
  -7 -11   5   81.44   33.72
  -7  11  -5  108.13   38.13
   7 -11   6   29.25   28.41
   7  11  -6   35.97   33.53
  -7 -11   6  138.12   42.83
  -7  11  -6   42.39   27.66
   7 -11   7   24.54   29.09
  -7 -11   7    5.79   28.39
  -7  11  -7   24.59   26.60
   7 -13   1   16.70   39.69
  -7  13  -1   23.26   42.67
  -7  13  -1  141.63   45.02
   7 -13   2 8186.88 1427.04
   7  13  -2 7582.85 1320.26
  -7  13  -2 8990.47 1566.72
   7 -13   3   92.06   37.30
  -7  13  -3  112.07   36.56
   7 -13   4  140.12   43.10
  -7  13  -4  147.99   46.72
   7 -13   5   92.49   30.87
   7  13  -5  103.87   32.49
  -7 -13   5  105.11   33.39
  -7 -13   6  590.01  109.86
  -7  13  -6  567.36  105.22
   7 -13   7   28.30   26.86
  -7 -13   7   24.16   29.80
  -7  13  -7   43.33   23.59
   7 -15   1    4.00   37.11
  -7  15  -1    3.96   12.13
  -7 -15   2   51.21   29.72
  -7 -15   3   84.40   33.03
  -7  15  -3   35.55   31.49
  -7 -15   4  459.77   88.93
  -7 -15   5   62.18   25.40
  -7 -15   6   48.18   26.12
  -7  15  -6   35.93   20.53
   7 -17   1   59.54   22.07
  -7 -17   1    4.78   40.70
  -7 -17   1   67.42   23.92
   7 -17   2    0.06   24.65
   7  17  -2   -0.32   26.30
  -7  17  -2   -2.03   21.75
  -7  17  -2    3.18   11.64
   7 -17   3  451.15   86.78
   7  17  -3  530.59   99.13
  -7 -17   3  541.48  100.85
  -7 -17   4   21.79   25.05
  -7  17  -4   24.16   24.52
   7 -17   5  459.98   87.96
   7 -19   1   43.09   18.78
   7 -19   2   -2.00   26.12
   7 -19   2   14.09   13.08
   7  19  -2    0.06   28.88
  -7 -19   2    2.78   22.03
  -7 -19   2    5.12   11.27
  -7  19  -2    2.38   27.12
   7 -19   4   -3.89   20.05
  -7 -19   4    0.17   21.98
   7 -21   2   92.28   38.38
  -7 -21   2   88.88   35.20
  -7  21  -2   25.35   27.88
  -7 -21   3   72.00   27.54
  -7  21  -3   74.43   26.73
   7  21  -4    4.51   24.02
  -7  21  -4   16.24   23.33
  -7  23  -1    0.92    7.67
   7  23  -2   27.26   33.99
  -7  23  -2   21.98   30.95
   8   0   0 5005.97  878.01
   8   0   0 3360.51 1006.37
   8  -2   2  620.76  110.29
   8  -4   1 5398.60  939.50
  -8   4  -1 5652.08  983.18
   8  -4   2   71.03   21.08
  -8  -4   2   24.57   14.99
  -8   4  -2   31.99   19.40
   8  -4   3 5085.26  886.10
  -8   4  -3 4995.73  870.46
   8  -6   1 1119.09  197.44
   8   6  -1  805.21  141.36
   8  -6   2  229.38   44.91
   8   6  -2  247.18   45.84
  -8  -6   2  205.43   38.51
   8  -6   3 1098.05  194.15
   8   6  -3 1432.98  251.22
  -8   6  -3 1458.33  256.01
   8  -6   4   80.25   39.88
  -8   6  -4   94.22   41.53
   8  -6   5  565.74  109.32
  -8   6  -5  535.28  101.34
   8   8  -1  297.06   54.74
  -8  -8   1  477.51   85.32
  -8   8  -1  295.28   56.36
  -8   8  -2 6574.32 1143.90
   8   8  -3  204.19   42.31
  -8  -8   3  170.42   36.47
   8   8  -4 3473.23  607.27
  -8  -8   4 3088.14  540.94
  -8   8  -4 3233.23  566.28
   8  -8   5  574.91  110.72
  -8   8  -5  492.34   95.46
   8  -8   6  280.77   61.27
   8 -10   1   25.54   25.22
   8  10  -1  109.11   34.58
  -8 -10   1   58.57   21.34
   8 -10   2   37.78   22.60
   8  10  -2   48.48   18.72
  -8 -10   2   64.77   21.27
  -8  10  -2   38.77   22.98
   8 -10   4  437.82   82.84
   8  10  -4  537.54  100.31
  -8  10  -4  419.43   78.53
   8 -10   5  104.14   35.64
  -8 -10   5  125.12   41.06
   8 -10   6   98.05   36.16
  -8 -10   6   56.90   33.32
  -8  10  -7   13.44   31.69
   8 -12   1   35.20   33.76
  -8  12  -1   83.00   42.78
  -8 -12   2 1091.04  195.56
  -8  12  -2  808.98  147.19
   8  12  -3  694.64  128.85
  -8  12  -3  708.67  130.09
  -8 -12   4   94.70   31.51
  -8  12  -4  115.69   42.32
   8 -12   5 1164.39  208.18
   8  12  -5  917.92  164.92
  -8 -12   5  961.06  172.15
  -8  12  -5  828.40  148.75
   8 -12   6   21.19   24.69
  -8 -12   6   37.28   27.29
   8 -12   7   91.41   33.77
   8 -14   1  157.53   57.22
   8  14  -1  606.74  182.67
  -8 -14   1  222.90   59.11
   8 -14   2  148.16   42.29
  -8 -14   2  223.01   49.30
  -8  14  -2  210.61   48.31
   8 -14   3  215.73   50.08
   8  14  -3  250.41   54.69
  -8 -14   3  297.33   64.72
   8  14  -4  134.56   36.45
   8  14  -5  788.48  142.06
   8 -14   6   15.94   26.18
  -8 -14   6   13.22   22.96
  -8 -14   7    8.40   29.77
  -8 -16   1   61.43   23.21
  -8  16  -1   17.58   14.17
   8 -16   3  109.59   34.62
   8  16  -3  134.46   35.45
  -8  16  -3  144.16   36.41
   8  16  -4   84.84   29.74
  -8  16  -4   83.97   30.56
  -8  16  -5   60.46   26.72
  -8 -16   6   10.03   22.14
   8 -18   1    8.84   36.56
   8 -18   1    3.57    9.79
   8 -18   2   99.23   32.61
   8  18  -2  253.58   78.31
  -8 -18   2  149.88   36.07
  -8  18  -2  175.55   41.48
  -8  18  -2  122.37   40.79
   8 -18   3   49.54   25.17
  -8 -18   3   29.57   23.29
  -8  18  -3   40.69   21.73
   8 -18   4   52.03   26.92
   8  18  -4   29.38   24.73
  -8  18  -4   55.82   24.09
  -8 -18   5   12.41   23.95
  -8  18  -5    1.13   21.99
   8 -20   2   36.54   27.10
   8 -20   2  123.40   40.98
  -8 -20   2   20.39   22.18
  -8 -20   2   36.74   16.43
   8  20  -3  123.72   33.41
  -8 -20   4  127.98   34.90
  -8  20  -4  144.43   36.18
   8  22  -2    0.09   26.90
  -8  22  -2    6.31   26.84
  -9  -1   0  229.86   42.97
   9  -1   1 2271.08  395.97
  -9   1  -1 2419.39  421.75
   9   3  -1  127.44   24.27
  -9  -3   1   88.39   18.58
   9  -3   2 2336.88  407.56
  -9   3  -2 2494.89  435.07
   9  -5   1   35.02   15.35
   9   5  -1   59.76   13.69
  -9   5  -1   80.63   21.17
   9   5  -2  161.79   31.21
   9  -5   3  130.57   30.54
  -9   5  -3   60.19   26.77
   9  -5   4 1541.38  274.03
   9  -7   1  147.35   33.79
   9   7  -1  174.79   33.24
   9  -7   4  152.62   42.89
  -9  -7   4  128.04   43.42
  -9   7  -4  177.60   46.69
  -9   7  -5   34.38   34.32
  -9   7  -6   22.35   27.46
   9  -9   1  910.37  161.68
   9  -9   1  634.78  191.30
   9   9  -1 1042.51  312.11
  -9  -9   1  851.05  150.21
  -9   9  -1 1034.42  184.01
  -9   9  -1  820.31  246.80
   9  -9   2  -12.46   19.36
   9  -9   4    9.76   29.16
   9   9  -4   14.82   23.83
   9  -9   5  717.84  133.11
  -9   9  -5  510.63   95.73
   9  -9   6    2.35   32.40
  -9   9  -6    8.53   28.48
   9  -9   7   77.34   35.21
  -9   9  -7   61.00   28.58
   9  11  -1  280.71   63.37
  -9  11  -1  160.88   57.92
   9 -11   2   76.21   37.18
   9  11  -2   42.89   28.24
  -9  11  -2   27.87   28.67
   9  11  -3  193.29   45.21
  -9 -11   4  115.31   35.69
   9 -11   5   89.15   34.33
   9  11  -5   35.05   24.02
  -9 -11   5   39.39   28.70
  -9  11  -5   50.86   26.56
   9 -11   6   27.77   26.10
   9  11  -6   13.25   27.15
  -9  11  -6   16.71   21.49
   9 -11   7   11.57   29.93
   9  11  -7    1.88   25.59
  -9  11  -7   12.03   25.07
   9 -13   1    6.46   40.90
  -9  13  -1   10.31   41.43
  -9  13  -1  174.74   54.79
   9 -13   2 3629.09  635.32
   9  13  -2 3817.85  666.60
  -9  13  -2 2469.01  433.29
   9 -13   3   36.89   31.51
  -9 -13   3   51.22   27.85
  -9  13  -3   41.14   26.66
   9 -13   4   37.63   29.31
   9 -13   5   27.46   24.54
   9  13  -5   24.41   26.37
  -9 -13   5   29.72   26.34
   9 -13   6   38.88   25.48
   9  13  -6    3.49   21.95
  -9 -13   6   28.56   27.50
  -9  13  -6   63.05   27.19
   9  13  -7   -4.93   28.71
  -9 -13   7   15.89   31.92
  -9  13  -7    6.70   21.89
   9 -15   1    0.41   37.29
  -9  15  -1    1.44   11.99
  -9 -15   2    3.72   22.80
  -9 -15   3   17.90   23.64
  -9  15  -3    1.17   22.44
  -9 -15   4  205.16   45.65
  -9 -15   5   15.59   19.78
   9  15  -6    4.55   23.10
  -9  15  -6   13.86   17.50
   9 -17   1   36.95   16.22
  -9 -17   1   -6.74   35.50
  -9 -17   1   54.36   20.08
   9 -17   2   -2.89   21.53
   9  17  -2    6.02   21.42
  -9  17  -2    2.74   18.94
  -9  17  -2    7.34   11.57
   9 -17   3   46.83   26.48
   9  17  -3   49.26   24.25
  -9 -17   3    9.78   19.64
   9 -17   4   31.23   28.01
  -9 -17   4   19.31   20.79
  -9  17  -4   18.67   21.42
   9  17  -5   32.10   23.56
   9 -19   1   10.16   39.10
   9 -19   1   12.35   10.39
   9 -19   2    4.53   25.27
   9 -19   2    3.14   11.13
  -9 -19   2   -0.03   18.92
  -9 -19   2    4.00   11.78
  -9  19  -2   -0.43   24.36
   9  19  -3  196.15   43.32
  -9 -19   3  230.40   49.25
   9  19  -4    2.72   19.45
  -9 -19   4    5.34   20.84
  -9  19  -4   14.19   22.86
   9  21  -2   78.63   28.81
  -9 -21   2   98.64   35.96
  -9  21  -2   27.33   26.76
  -9  21  -3   11.22   17.44
  10   0   0 4451.55  780.39
  10   0   0 3213.27  962.14
 -10   0  -1   13.46   13.20
 -10   2  -2 1282.50  224.84
 -10  -4   1   94.49   18.48
 -10   4  -1  121.62   26.36
  10  -4   2    9.51   13.42
  10   4  -2    6.37   13.86
 -10   4  -2   17.70   12.89
  10  -4   3 2744.06  479.13
 -10   4  -4   46.57   38.93
  10  -6   1  476.97   86.02
  10   6  -1  388.26   68.93
 -10  -6   1  328.29   59.16
 -10   6  -1  300.35   55.28
  10  -6   2  175.17   35.64
  10   6  -2  161.58   31.87
 -10  -6   2  158.50   31.87
  10  -6   3 1675.66  294.90
  10   6  -3 1074.86  191.35
 -10   6  -3 1596.93  281.47
  10  -6   4  128.04   42.79
 -10   6  -4  105.87   42.02
  10  -6   5   47.69   38.35
 -10   6  -5   38.50   35.15
  10   8  -1  302.02   55.87
  10  -8   2 9999.00 1740.39
 -10   8  -2 8413.40 1464.26
  10   8  -3   94.65   32.48
 -10  -8   4 1510.10  268.20
 -10   8  -4 1063.00  189.08
  10  -8   5   91.09   39.48
  10   8  -5   49.63   31.92
  10  -8   6  108.35   38.91
 -10   8  -7    7.83   25.35
  10 -10   1   25.59   33.16
  10  10  -1   80.52   38.49
 -10 -10   1    9.27    9.58
  10 -10   2  440.84   84.89
  10  10  -2  382.54   72.54
 -10 -10   2  383.78   73.62
 -10  10  -2  351.86   70.54
  10 -10   4  929.79  167.40
  10  10  -4  766.91  139.69
 -10 -10   4  984.26  176.36
  10 -10   5   19.80   24.83
  10  10  -5    9.82   27.10
 -10 -10   5   22.81   29.13
 -10  10  -5   19.98   24.33
  10 -10   6   65.37   32.15
 -10 -10   6   23.94   28.93
 -10  10  -6   69.57   27.10
 -10  10  -7    4.62   24.64
  10 -12   1   99.88   51.40
 -10  12  -1   39.29   44.06
  10  12  -2 2206.36  387.28
 -10 -12   2 2539.12  444.78
 -10  12  -2 1954.50  343.66
 -10  12  -3  568.98  105.82
 -10 -12   4   23.01   23.78
 -10  12  -4   34.48   24.99
 -10 -12   5  667.14  121.83
 -10  12  -5  630.47  114.61
  10 -12   6   57.06   24.66
 -10 -12   6   40.40   28.07
 -10  12  -6   64.18   27.48
 -10 -12   7   67.47   34.47
 -10  12  -7  135.70   36.54
  10 -14   1   15.56   38.61
  10  14  -1  290.58   88.66
 -10 -14   1   84.67   39.32
  10 -14   2  159.58   45.29
 -10  14  -2  104.04   29.49
  10 -14   3   14.01   24.28
  10  14  -3   36.55   24.44
  10  14  -4   84.46   26.92
  10  14  -5  105.98   27.65
 -10 -14   5  189.62   42.20
  10 -14   6    4.22   26.03
 -10 -14   6    9.62   22.95
 -10 -16   1   38.71   16.85
 -10 -16   2  169.29   38.26
 -10  16  -2   99.23   27.39
  10 -16   3   58.25   26.79
  10  16  -3   76.58   25.86
 -10 -16   3   63.48   25.87
 -10  16  -3   85.97   28.59
  10  16  -4   57.76   23.90
 -10  16  -4   66.12   24.27
 -10  16  -5   62.08   28.66
  10 -18   1    4.12    9.15
  10 -18   2   90.17   30.73
  10  18  -2  176.79   40.28
  10  18  -2  136.02   43.35
 -10  18  -2  159.69   38.23
 -10  18  -2  222.69   70.27
  10 -18   3   89.26   28.90
 -10 -18   3   64.99   26.71
 -10  18  -3   76.80   26.19
  10  18  -4   12.58   20.89
 -10  18  -4   46.14   21.31
 -10  18  -5    4.70   19.31
  10 -20   2   66.98   25.42
  10  20  -2   29.73   25.33
 -10 -20   2    2.25   20.49
 -10 -20   2   15.38   11.20
  10  20  -3  108.78   29.64
 -10  20  -4   21.55   23.41
  10  22  -2    1.89   28.65
 -10  22  -2    1.23   28.51
  11   1   0 1177.87  213.57
 -11  -1   0 1181.11  213.73
  11  -1   1  443.81   78.36
 -11   1  -1  496.44   87.86
  11   3  -1  203.43   36.82
 -11   3  -2   46.08   19.02
  11  -3   3   30.62   26.01
  11   5  -1   17.60    9.41
 -11   5  -1   43.11   16.68
  11   5  -2   94.70   23.76
 -11  -5   2   85.91   23.10
  11  -5   3   35.79   26.91
 -11   5  -4 3415.51  597.57
  11  -7   2 1605.56  282.71
 -11  -7   2 1562.42  274.46
  11  -7   3   38.79   24.14
  11   7  -3   23.23   27.18
  11  -7   4  103.60   32.36
  11   7  -4   32.63   31.43
 -11   7  -4  100.58   29.86
 -11   7  -5  260.65   57.01
 -11   7  -6   50.03   27.24
  11  -9   1  976.17  174.84
  11  -9   1  342.04  104.47
  11   9  -1  656.89  197.28
 -11  -9   1  731.32  131.00
  11  -9   2   25.94   24.20
  11   9  -3  883.94  156.72
 -11   9  -3 1129.34  200.25
  11  -9   4   31.33   29.73
  11   9  -4    9.88   26.13
 -11  -9   4    6.29   30.44
 -11   9  -4    9.67   26.80
  11  -9   5  483.50   90.98
 -11  -9   5  356.97   70.87
 -11   9  -5  532.42   97.94
  11  -9   6   13.20   29.72
 -11   9  -6    8.14   24.36
  11  -9   7   10.79   30.56
  11 -11   2  653.66  120.76
  11  11  -2  807.90  144.43
  11 -11   3  736.71  135.64
  11  11  -3  846.20  152.46
  11  11  -4   14.07   23.33
 -11 -11   4   14.99   23.26
  11 -11   5  274.83   58.79
 -11 -11   5  177.54   45.64
 -11  11  -5  247.88   51.11
  11 -11   6   48.87   26.57
  11  11  -6   -2.85   23.71
 -11  11  -6   31.01   21.88
  11  11  -7   41.32   30.94
 -11  11  -7   12.36   28.57
  11 -13   1   52.06   42.59
  11  13  -1   30.94   33.02
 -11 -13   1   59.38   35.37
 -11  13  -1    6.00   36.38
  11 -13   2 1549.47  276.13
  11  13  -2 1468.03  259.73
  11 -13   3   78.20   33.00
 -11 -13   3   71.89   29.65
 -11  13  -3  100.80   29.14
  11 -13   4  129.39   36.29
  11 -13   5   74.80   25.15
  11  13  -5   53.54   24.60
 -11 -13   5   62.13   26.88
  11 -13   6    8.57   26.31
  11  13  -6    4.56   19.42
 -11  13  -6   11.63   21.57
  11 -15   1    4.28   38.33
 -11  15  -1    1.96   10.96
 -11 -15   2    9.35   17.42
 -11  15  -2   11.30   19.10
  11  15  -3   10.16   21.81
 -11 -15   3    7.94   20.82
 -11  15  -3   10.69   21.52
  11 -15   4   34.71   27.03
 -11 -15   4   65.31   24.65
 -11 -15   5   10.43   18.24
 -11  15  -5    2.60   20.17
  11  15  -6   11.02   22.90
 -11  15  -6   32.27   19.40
 -11 -17   1   27.65   13.05
  11 -17   2   -0.37   21.69
  11  17  -2    2.77   19.03
  11  17  -2    2.49   10.75
 -11  17  -2   -0.73   17.73
 -11  17  -2    5.92   10.67
  11 -17   3   81.17   30.61
  11  17  -3   95.24   27.57
 -11 -17   3  113.15   30.35
 -11  17  -4   12.40   21.59
  11  17  -5  284.33   59.65
  11 -19   1    4.56   33.62
  11 -19   1   31.61   14.00
  11 -19   2    4.57   10.55
 -11 -19   2   -1.01   17.80
 -11  19  -2   -1.44   26.35
  11  19  -3  134.08   32.85
 -11 -19   3  109.37   31.02
 -11  19  -3  113.91   32.06
  11  19  -4   -0.26   19.74
 -11  19  -4   10.78   20.02
  11  21  -2  296.57   61.32
 -11  21  -2  261.46   59.00
  12   0   0 3436.55  602.96
  12   0   0 2706.85  810.60
 -12   0   0 3604.28  632.09
  12  -2   2  497.68   90.01
 -12   2  -2  448.45   81.60
  12  -4   1   41.80   14.14
 -12  -4   1   30.83   10.71
 -12   4  -1   32.07   14.83
 -12   4  -2   90.88   21.46
  12  -4   3  120.97   35.36
  12   6  -1  744.27  131.06
 -12  -6   1  789.02  139.04
 -12   6  -1  495.53   90.01
  12  -6   2  211.95   46.68
  12   6  -2  148.05   33.79
 -12  -6   2  135.48   34.52
  12  -6   4  346.36   68.76
 -12   6  -4  230.78   51.51
  12  -6   5  215.35   48.36
  12   8  -1  203.43   42.04
 -12  -8   1  156.13   37.72
  12  -8   2 4332.36  756.13
  12   8  -3   25.47   21.92
 -12  -8   3   25.29   21.37
  12  -8   4  247.01   53.11
 -12   8  -4  274.19   55.33
  12  -8   5   51.10   29.14
 -12   8  -5   45.02   23.30
 -12   8  -6   85.48   32.35
 -12   8  -7   17.28   26.60
  12 -10   1   23.37   30.29
  12 -10   1    8.57   15.15
  12  10  -1   24.93   35.20
 -12 -10   1   13.52   26.00
 -12 -10   1    6.91    8.58
  12 -10   2 5022.15  875.85
  12  10  -2 5212.53  908.22
 -12 -10   2 5830.05 1016.08
 -12  10  -2 5279.95  920.08
  12 -10   4   90.93   26.60
 -12 -10   4   76.80   27.55
  12  10  -5   -1.28   21.99
 -12 -10   5   23.01   31.52
 -12  10  -5   11.89   21.31
  12 -10   6   63.80   31.33
  12  10  -6   -4.46   22.30
 -12  10  -6   18.53   20.18
  12 -12   1  175.55   54.26
 -12  12  -1  250.14   60.46
 -12  12  -3 1055.45  188.38
  12  12  -4  206.02   41.45
 -12  12  -4  318.09   61.81
 -12 -12   5    2.25   20.58
 -12  12  -5    0.41   15.71
  12 -12   6   43.78   27.85
  12  12  -6   11.10   23.40
 -12 -12   6   15.94   25.57
 -12  12  -6   42.92   23.73
  12 -14   1   33.35   38.29
  12 -14   3  157.32   37.46
  12  14  -3  164.54   36.95
 -12  14  -3  162.39   36.64
  12  14  -4    6.42   20.79
 -12  14  -4   12.35   17.10
 -12 -14   5   88.50   28.16
  12  14  -6    3.40   21.34
 -12 -14   6    7.24   25.40
 -12  14  -6   15.83   18.82
  12 -16   1    1.87   31.56
 -12 -16   1   30.75   14.71
  12 -16   3   45.03   24.35
  12  16  -3   35.02   19.91
 -12 -16   3   20.72   17.58
 -12  16  -3   42.62   21.37
  12  16  -4  193.88   42.29
 -12  16  -4  133.00   33.18
  12 -18   1    6.06    9.23
  12 -18   2   25.73   26.46
  12  18  -2   60.89   21.79
 -12 -18   2   39.69   19.57
 -12  18  -2   44.69   22.87
 -12 -18   3   70.92   25.20
 -12  18  -3   54.47   23.13
  12  18  -4   14.43   19.66
  12 -20   1   -0.88    9.07
  12 -20   2   54.15   22.44
  12  20  -2   19.62   22.19
 -12 -20   2   14.97   10.64
  12  20  -3   59.38   25.19
  13   1   0  194.59   35.38
 -13  -1   0  297.33   54.09
  13  -1   1 1742.55  304.50
 -13   1  -1 1315.94  230.29
 -13   1  -2  606.74  109.91
 -13   3  -1   39.61   15.59
  13  -3   2  713.52  127.07
 -13   3  -2  762.06  135.16
  13  -5   1   14.54   18.28
  13   5  -2 7453.41 1298.68
  13  -5   3    5.82   18.45
 -13   5  -5   22.65   23.62
  13  -7   1  242.81   54.26
  13   7  -1  337.51   62.72
 -13  -7   1  255.47   51.08
  13  -7   2  101.39   30.68
 -13  -7   2   96.27   28.22
  13  -7   3  448.29   82.03
  13   7  -3  343.61   67.47
 -13  -7   3  345.98   68.06
  13  -7   5  107.81   34.35
 -13   7  -5   84.89   29.09
  13  -7   6   32.60   29.77
 -13   7  -6   18.30   25.69
  13  -9   1  371.80   70.38
  13  -9   1  118.22   39.01
  13   9  -1  297.11   90.28
 -13   9  -1  287.35   59.27
  13  -9   2    2.04   17.07
  13   9  -3   82.52   26.97
 -13  -9   3   93.84   29.49
  13  -9   4   -3.64   21.40
  13   9  -4    3.42   23.01
 -13   9  -4   -5.50   15.15
  13  -9   5  144.27   35.88
 -13   9  -5  180.83   40.12
  13  -9   6   15.14   29.00
 -13   9  -6   -0.26   24.51
  13  11  -1  240.11   55.55
 -13  11  -1  229.16   54.53
  13 -11   2  129.87   37.00
  13  11  -2  104.74   28.63
  13 -11   3  726.47  131.87
  13  11  -3  752.90  135.21
  13  11  -4   70.70   25.12
  13 -11   5    7.31   24.16
  13  11  -5    1.81   18.42
 -13 -11   5   -1.00   22.51
  13  11  -6   -0.02   25.21
 -13 -11   6    2.23   24.65
 -13  11  -6   11.13   20.11
  13 -13   1   59.00   37.75
  13  13  -1   11.84   32.22
 -13  13  -1    4.14   33.53
  13 -13   2  798.73  145.14
  13  13  -2  875.31  156.07
  13 -13   3   23.20   22.75
 -13  13  -3   22.45   18.97
  13 -13   4  186.33   43.72
 -13 -13   4  142.92   34.21
  13 -13   5   40.40   23.77
  13  13  -5   18.96   20.62
  13 -15   1   -0.26   31.32
 -13  15  -1   -2.30   35.45
 -13  15  -1    0.55    9.16
 -13  15  -2    9.69   14.91
  13  15  -3    0.54   17.66
 -13 -15   3    9.65   18.57
 -13  15  -3   21.37   19.53
  13 -15   4   21.70   22.94
 -13 -15   4   49.25   25.49
 -13  15  -5    7.59   20.41
 -13 -17   1   20.73   10.73
  13 -17   2    1.35   24.12
  13  17  -2    4.62   18.71
  13  17  -2    2.32    9.32
 -13  17  -2   11.87   20.66
 -13  17  -2    3.38    9.87
  13  17  -3  300.99   58.52
 -13  17  -4   19.40   19.89
  13 -19   1   18.71   11.02
  13 -19   2    1.80   10.13
  13  19  -3   93.14   27.87
 -13  19  -3   98.43   28.76
  14   0   0 1726.37  303.15
 -14   0   0 1658.41  291.72
  14   0   1   22.04   19.94
 -14   0  -1   11.09   16.81
  14  -2   2  145.51   33.79
 -14   2  -2  189.84   41.53
  14  -4   1  927.09  163.73
  14   4  -1  769.07  135.59
 -14  -4   1  801.97  141.95
 -14   4  -1  890.96  157.15
  14  -4   2  103.44   26.84
 -14   4  -3  270.03   51.48
  14  -4   4   -0.10   23.24
  14  -6   1  428.44   80.90
  14   6  -1  483.82   86.45
 -14  -6   1  772.30  136.61
  14   6  -2  345.06   63.75
 -14  -6   2  271.92   51.95
  14  -6   4   29.00   23.28
  14  -6   5   57.22   28.70
 -14   6  -6   -2.30   24.57
 -14  -8   1    9.21   18.90
 -14   8  -1   23.00   17.34
 -14   8  -1   15.15   10.91
  14  -8   2  394.84   73.89
 -14   8  -2  355.14   65.90
 -14  -8   3    8.01   22.68
  14  -8   4   29.12   21.82
  14   8  -4    5.63   23.15
 -14  -8   4   12.32   26.25
 -14   8  -4   21.51   16.55
 -14   8  -5   -2.24   19.03
 -14   8  -6   36.57   26.12
  14 -10   1   11.22   25.33
  14 -10   1    8.01   11.56
  14  10  -1    9.61   29.96
 -14 -10   1    0.64   24.13
 -14 -10   1    5.13    8.05
 -14 -10   3   12.19   16.63
 -14  10  -3   16.37   16.10
  14 -10   4   36.66   21.23
 -14 -10   4   11.08   21.47
  14  10  -5    2.74   21.68
 -14  10  -5    5.27   17.92
  14  10  -6    1.79   23.37
 -14  10  -6    4.62   19.98
  14  12  -2  160.93   36.84
 -14 -12   2   78.79   24.11
 -14  12  -2   84.24   22.77
 -14 -12   3  141.31   35.75
 -14  12  -3  178.30   38.85
  14  12  -5    4.98   16.03
 -14 -12   5    0.44   20.44
 -14  12  -5    7.66   17.79
  14 -14   1   23.30   32.48
 -14 -14   1   98.37   41.87
 -14  14  -1  250.79   77.77
  14 -14   2   68.82   30.16
 -14 -14   2   63.05   26.11
  14 -14   3   49.32   22.38
  14  14  -3   48.57   19.72
 -14  14  -3   22.02   17.13
 -14  14  -4   11.22   18.79
 -14 -14   5    4.54   21.10
 -14 -16   1   13.30   10.11
  14  16  -3   21.57   17.30
 -14  16  -3   30.06   19.18
 -14  16  -4   75.72   26.50
  14 -18   1    2.91    8.65
  14  18  -2  152.95   35.92
  14  18  -2   64.83   23.13
 -14  18  -2  166.65   43.20
 -14  18  -3    7.46   21.21
  15  -1   1   66.88   18.79
  15  -1   2   32.84   19.42
 -15   3  -1   55.98   15.23
 -15   3  -2  244.59   46.59
 -15   3  -3   33.45   19.89
  15  -5   1    3.97   14.63
 -15   5  -1    6.09   12.94
  15   5  -2  484.31   87.96
 -15  -5   2  305.20   59.54
 -15   5  -3   30.04   16.68
  15  -5   4   64.02   26.67
 -15   5  -4  125.72   30.48
 -15   5  -5    1.70   19.66
 -15  -7   1   21.46   16.27
 -15   7  -1   15.30   14.04
 -15  -7   2   44.46   21.49
 -15   7  -2   43.64   17.34
  15  -7   4    6.92   17.89
  15  -7   5   55.39   27.12
 -15   7  -5   18.30   23.57
  15   9  -1  314.80   95.41
  15  -9   2    0.13   15.05
 -15   9  -2   -2.08   14.55
  15  -9   3  443.38   81.92
  15   9  -3  300.89   56.95
 -15  -9   3  438.96   81.81
  15   9  -4    3.71   21.67
 -15  -9   4    3.21   23.55
 -15   9  -4    2.08   12.23
  15   9  -5    5.73   26.04
  15 -11   1   11.01   26.53
  15 -11   2  115.31   30.46
  15  11  -2  101.01   23.95
 -15 -11   2  153.70   34.71
  15 -11   3   75.99   25.74
  15  11  -3   86.61   25.81
  15  11  -4    3.66   18.02
  15  11  -5   -1.88   22.53
 -15  11  -5   16.73   19.10
  15 -13   1    9.39   28.50
 -15 -13   1   36.49   28.47
 -15  13  -1    1.64   30.21
  15 -13   2  714.06  130.63
  15  13  -2  798.73  142.38
 -15 -13   4    8.99   17.21
  15  13  -5   -5.58   19.58
 -15  15  -1    1.59   30.56
 -15  15  -1   -0.31    8.18
 -15 -15   2   68.98   25.57
 -15  15  -2   64.77   21.00
  15  15  -3    8.47   16.45
 -15 -15   3   13.51   18.63
 -15  15  -3    0.33   17.12
 -15 -17   1   10.27    8.07
  15  17  -2    7.48   18.43
  15  17  -2    1.43    8.06
 -15  17  -2    8.32   18.54
 -15  17  -2    4.55    9.80
  15  17  -3  229.59   47.73
 -15  17  -3  290.80   59.59
  16   0   0 2632.96  462.25
 -16   0   0 2684.19  471.15
  16   0   1   15.04   13.74
 -16   0  -1   14.10   11.44
  16  -2   2  206.07   41.63
 -16   2  -2  309.14   57.06
 -16   2  -3   26.71   16.55
  16  -4   1   83.38   21.79
  16   4  -1   58.73   14.34
 -16  -4   1   49.72   17.21
 -16   4  -1   82.73   19.70
  16  -4   2   32.63   14.29
 -16   4  -3   22.64   13.20
  16  -4   4   -2.74   20.38
  16   6  -2   55.55   19.79
 -16  -6   2   34.44   21.54
 -16   6  -4   15.95   14.66
 -16   6  -5   21.74   22.50
 -16   6  -6    1.49   21.96
  16   8  -1   37.40   16.48
 -16  -8   1   16.75   15.44
 -16   8  -1    8.91   13.44
 -16   8  -1   19.56   10.39
  16  -8   2  252.94   48.94
 -16   8  -2  266.53   50.08
  16   8  -3    6.62   17.53
 -16  -8   3    1.98   23.65
 -16   8  -3   43.70   17.61
  16  -8   4   39.70   22.49
 -16  -8   4    2.37   25.81
 -16   8  -5    5.01   17.32
  16 -10   1    5.41   19.75
  16 -10   1    5.39    9.51
  16  10  -1   10.09   22.76
 -16 -10   1   -0.33   16.75
 -16  10  -1    5.31   21.30
  16 -10   2   72.21   22.38
  16  10  -2   39.27   15.54
 -16  10  -2   25.78   15.53
 -16 -10   3    5.17   20.25
  16  10  -4    2.49   17.20
  16  10  -5    8.91   20.77
 -16  10  -5    2.44   17.38
 -16 -12   2   63.96   25.64
 -16  12  -2   54.85   19.31
 -16  12  -3  294.41   56.36
  16  12  -4    5.11   13.31
 -16 -12   4   18.69   19.99
 -16  14  -1  131.65   42.47
  16  14  -2   32.72   21.53
  16  14  -3  141.63   30.99
 -16  14  -3  169.24   36.61
 -16 -16   1   20.92   11.29
 -16  16  -2   38.41   17.45
  16  16  -3    8.40   17.37
  17  -1   0  150.74   31.21
  17  -1   1  137.48   27.55
  17  -1   2    7.24   15.31
 -17   1  -2   10.09   15.38
 -17   3  -1   27.72   11.14
  17  -3   2   76.91   20.76
 -17   3  -2   63.42   16.38
 -17   3  -3   20.29   14.38
 -17   3  -4   -0.73   15.31
  17  -5   1    3.05   13.13
 -17  -5   1    6.60   11.45
 -17   5  -1   11.50   13.15
 -17   5  -2  116.82   25.16
 -17   5  -3    7.96   12.82
  17  -5   4    6.61   21.25
 -17   5  -4    8.18   16.12
  17  -7   1   44.84   22.14
 -17   7  -1   29.59   11.30
  17   7  -2   46.21   14.75
 -17  -7   2   59.06   20.76
 -17   7  -2   85.05   19.91
  17   7  -3    3.12   15.28
 -17  -7   3   22.62   26.02
 -17   7  -4   35.08   16.38
 -17  -9   1   29.14   17.75
  17  -9   2    7.46   16.44
 -17   9  -2    4.55   13.83
  17   9  -3  101.18   24.72
 -17  -9   3  130.25   32.12
  17   9  -4   -2.63   19.99
 -17 -11   1   33.80   12.80
 -17  11  -1   70.06   25.56
  17  11  -2  114.77   25.64
 -17 -11   2  137.85   31.36
 -17  11  -2  126.20   28.73
  17  11  -4   -0.96   16.45
 -17 -11   4    0.12   19.10
 -17  11  -4    6.44   16.07
 -17 -13   1   51.62   27.41
  17  13  -2  620.76  111.59
 -17 -13   2  667.67  120.76
 -17  13  -2  526.22   96.92
 -17  15  -1    0.52    8.07
 -17 -15   2   84.62   25.44
 -17  15  -2   36.22   16.97
  18   0   0  569.52  100.85
  18   0   1    0.97   10.76
 -18   0  -1    2.99    8.42
 -18  -2   0  361.93   67.58
  18  -2   0  182.02   55.28
  18  -2   2    2.63   13.65
 -18   2  -2    1.50   10.87
  18  -4   1   20.59   12.00
  18   4  -1    0.51    7.70
 -18   4  -1   20.79   10.95
  18  -4   2   11.64   10.87
  18  -4   3  142.87   33.01
 -18   4  -3  170.04   33.24
 -18   4  -4    5.17   16.53
  18  -6   1  219.40   43.86
  18   6  -1  144.76   27.49
  18   6  -2    5.34   12.19
 -18  -6   2   21.44   22.12
 -18   6  -3  151.23   29.94
 -18   6  -4    1.84   12.52
 -18   6  -5   -5.36   20.93
  18   8  -1   31.71   13.69
 -18  -8   1   42.65   16.58
 -18   8  -1    7.68   11.57
 -18   8  -1   22.52   10.64
 -18  -8   2 1017.70  179.54
  18   8  -3   -3.30   13.81
 -18  -8   3   -4.37   21.08
 -18   8  -3    9.22   12.26
 -18 -10   1    2.43   14.65
 -18  10  -1    1.62   18.28
  18  10  -2   13.39   11.63
 -18 -10   3   17.69   17.95
  18  10  -4   -6.94   16.36
 -18 -10   4   -3.47   23.24
 -18  12  -3  260.92   50.74
 -18  14  -1  182.77   57.11
  18  14  -2   24.29   19.74
 -19  -1   0   85.43   16.65
  19  -1   0   75.88   18.66
  19  -1   1   28.93   10.59
 -19  -1  -1    5.26   10.60
 -19   1  -2    4.83   11.05
 -19   3  -1   24.99   10.12
  19  -3   2   17.31   12.90
 -19   3  -2   31.86   11.19
 -19   3  -3   12.91   13.84
 -19   3  -4    2.91   13.39
  19  -5   1    5.62   11.98
 -19  -5   1    2.75    8.77
 -19   5  -1    2.17    8.72
 -19   5  -3    8.64   10.70
 -19   5  -4    0.80   14.80
  19   7  -1   72.54   16.98
 -19  -7   1   36.54   12.13
  19   7  -2   41.96   13.60
 -19  -7   2   39.96   18.62
  19   7  -3    8.56   15.81
 -19  -7   3    0.51   21.66
 -19   7  -4   10.54   14.41
  19   9  -1   13.81   17.38
 -19  -9   1    3.76   14.28
 -19   9  -2    0.54   11.84
  19   9  -3   -3.70   14.31
 -19  -9   3    7.98   16.67
  19  11  -1   11.90   17.95
 -19 -11   1   13.36    8.12
 -19  11  -1    9.76   17.38
  19  11  -2   40.02   14.76
 -19 -11   2   18.48   16.69
 -19  11  -2   13.64   12.39
 -19 -11   3   23.88   18.81
 -19  11  -3   19.88   16.19
 -19 -13   1   41.64   27.30
  20   0   1   -3.42    8.77
 -20   0  -1    4.04    6.50
 -20   0  -2   -5.45   12.69
 -20   2  -1   23.73    8.75
  20  -2   2    0.81   11.41
 -20   2  -2   11.84    9.61
 -20   2  -3   16.41   17.12
  20  -4   1   30.00   13.29
 -20   4  -1   22.28   10.39
 -20   4  -4   -1.72   14.09
  20   6  -1  105.82   20.56
  20   6  -2    1.38   10.99
 -20  -6   2   13.86   17.33
  20   8  -1   16.69   13.31
 -20  -8   1    8.06   12.31
 -20   8  -1    1.96   11.49
  20   8  -3   22.18   14.24
 -20  -8   3   42.48   23.61
 -20 -10   1   -1.06   12.24
 -20  10  -1    4.85   17.41
  20  10  -2   42.25   13.74
 -21  -1   0   55.28   11.00
  21  -1   0   49.62   13.55
  21  -1   1    5.50    8.31
 -21  -1  -1   -1.67    7.67
 -21   1  -2   25.56   11.29
 -21   1  -3   -4.30   14.60
  21  -3   0    9.34    5.87
 -21   3  -1    6.71    6.80
 -21   3  -3   -0.59    9.74
 -21  -5   1    4.01    7.80
 -21   5  -1    0.06    9.03
 -21   5  -3    1.56   10.92
  21   7  -1   14.30    8.83
 -21  -7   1   14.57    8.99
 -21   7  -1    3.35    9.09
 -21   7  -1   10.73    6.97
  21   7  -2    1.81    9.90
 -21  -7   2    0.93   15.68
 -21  -9   1    2.05   11.26
 -21   9  -1    5.42   15.57
  22   0   0   72.00   16.38
  22   0   1   13.87    9.74
 -22   0  -2    2.18   14.91
  22   2   0    1.55    5.73
 -22   2  -1   22.97    8.04
 -22   2  -2   55.66   15.33
 -22   4  -1   25.93   10.51
   0   0   0    0.00    0.00

_computing_structure_solution     'SHELXT 2014/5 (Sheldrick, 2014)'
;
_shelx_hkl_checksum              79432
loop_
_space_group_symop_operation_xyz
'x, y, z'
'-x, -y, z+1/2'
'-x, y, -z+1/2'
'x, -y, -z'
'x+1/2, y+1/2, z'
'-x+1/2, -y+1/2, z+1/2'
'-x+1/2, y+1/2, -z+1/2'
'x+1/2, -y+1/2, -z'
'-x, -y, -z'
'x, y, -z-1/2'
'x, -y, z-1/2'
'-x, y, z'
'-x+1/2, -y+1/2, -z'
'x+1/2, y+1/2, -z-1/2'
'x+1/2, -y+1/2, z-1/2'
'-x+1/2, y+1/2, z'
loop_
_atom_site_label
_atom_site_type_symbol
_atom_site_fract_x
_atom_site_fract_y
_atom_site_fract_z
_atom_site_U_iso_or_equiv
_atom_site_adp_type
_atom_site_occupancy
_atom_site_site_symmetry_order
_atom_site_calc_flag
_atom_site_refinement_flags_posn
_atom_site_refinement_flags_occupancy
Si1 Si 0.9146(5) 0.7232(4) 0.7500 0.051(3) Uiso 1 2 d S P
Si2 Si 0.8042(4) 0.6891(3) 0.4570(12) 0.045(2) Uiso 1 1 d . .
Si3 Si 0.6946(4) 0.5743(3) 0.5406(11) 0.046(2) Uiso 1 1 d . .
Si4 Si 0.5845(6) 0.6203(4) 0.2500 0.051(3) Uiso 1 2 d S P
O1 O 0.5000 0.5960(10) 0.2500 0.056(5) Uiso 1 4 d S P
O2 O 1.0000 0.6966(9) 0.7500 0.063(6) Uiso 1 4 d S P
O3 O 0.7229(11) 0.5000 0.5000 0.074(5) Uiso 1 2 d S P
O4 O 0.7595(10) 0.6228(7) 0.493(3) 0.087(5) Uiso 1 1 d . .
O5 O 0.8295(12) 0.6916(8) 0.2500 0.078(6) Uiso 1 2 d S P
O6 O 0.6739(11) 0.5824(9) 0.7500 0.081(6) Uiso 1 2 d S P
O7 O 0.7500 0.7500 0.5000 0.085(6) Uiso 1 2 d S P
O8 O 0.8750(9) 0.6930(6) 0.577(2) 0.068(4) Uiso 1 1 d . .
O9 O 0.9057(14) 0.8014(8) 0.7500 0.085(6) Uiso 1 2 d S P
O10 O 0.6250(9) 0.5895(7) 0.422(2) 0.082(4) Uiso 1 1 d . .
loop_
_atom_type_symbol
_atom_type_description
_atom_type_scat_dispersion_real
_atom_type_scat_dispersion_imag
_atom_type_scat_source
Si Si 0.0000 0.0000 'International Tables Vol C Tables 4.3.2.2 and 4.3.2.3'
O O 0.0000 0.0000 'International Tables Vol C Tables 4.3.2.2 and 4.3.2.3'
loop_
_geom_angle_atom_site_label_1
_geom_angle_atom_site_label_2
_geom_angle_atom_site_label_3
_geom_angle
_geom_angle_site_symmetry_1
_geom_angle_site_symmetry_3
O9 Si1 O8 108.9(7) . .
O9 Si1 O8 108.9(7) . 10_557
O8 Si1 O8 109.8(12) . 10_557
O9 Si1 O2 114.9(12) . .
O8 Si1 O2 107.2(7) . .
O8 Si1 O2 107.2(7) 10_557 .
O4 Si2 O8 110.9(9) . .
O4 Si2 O7 106.7(8) . .
O8 Si2 O7 109.9(6) . .
O4 Si2 O5 109.6(9) . .
O8 Si2 O5 109.5(10) . .
O7 Si2 O5 110.2(7) . .
O4 Si3 O10 110.1(10) . .
O4 Si3 O3 106.7(9) . .
O10 Si3 O3 108.6(8) . .
O4 Si3 O6 109.6(10) . .
O10 Si3 O6 111.1(9) . .
O3 Si3 O6 110.6(7) . .
O9 Si4 O1 114.1(12) 13_666 .
O9 Si4 O10 109.0(7) 13_666 10_556
O1 Si4 O10 108.2(7) . 10_556
O9 Si4 O10 109.0(7) 13_666 .
O1 Si4 O10 108.2(7) . .
O10 Si4 O10 108.2(12) 10_556 .
Si4 O1 Si4 144.7(15) . 3_655
Si1 O2 Si1 142.0(14) . 3_756
Si3 O3 Si3 142.6(14) . 4_566
Si3 O4 Si2 161.1(12) . .
Si2 O5 Si2 147.7(16) . 10_556
Si3 O6 Si3 151.6(14) . 10_557
Si2 O7 Si2 180.0(3) 13_666 .
Si2 O8 Si1 148.4(11) . .
Si1 O9 Si4 167.6(17) . 13_666
Si3 O10 Si4 153.5(12) . .
loop_
_geom_bond_atom_site_label_1
_geom_bond_atom_site_label_2
_geom_bond_distance
_geom_bond_site_symmetry_2
Si1 O9 1.573(16) .
Si1 O8 1.631(16) .
Si1 O8 1.631(16) 10_557
Si1 O2 1.637(11) .
Si2 O4 1.578(18) .
Si2 O8 1.582(16) .
Si2 O7 1.600(7) .
Si2 O5 1.660(10) .
Si3 O4 1.569(17) .
Si3 O10 1.587(17) .
Si3 O3 1.603(10) .
Si3 O6 1.663(9) .
Si4 O9 1.574(17) 13_666
Si4 O1 1.607(11) .
Si4 O10 1.635(17) 10_556
Si4 O10 1.635(17) .
O1 Si4 1.607(11) 3_655
O2 Si1 1.637(11) 3_756
O3 Si3 1.603(10) 4_566
O5 Si2 1.660(10) 10_556
O6 Si3 1.663(9) 10_557
O7 Si2 1.600(7) 13_666
O9 Si4 1.574(17) 13_666
