#------------------------------------------------------------------------------
#$Date: 2021-04-09 10:27:53 +0300 (Fri, 09 Apr 2021) $
#$Revision: 264002 $
#$URL: file:///home/coder/svn-repositories/cod/cif/1/56/15/1561591.cif $
#------------------------------------------------------------------------------
#
# This file is available in the Crystallography Open Database (COD),
# http://www.crystallography.net/
#
# All data on this site have been placed in the public domain by the
# contributors.
#
data_1561591
loop_
_publ_author_name
'Fukuda, Koichiro'
'Hasegawa, Ryo'
'Kitagawa, Takuya'
'Nakamori, Hiroshi'
'Asaka, Toru'
'Berghout, Abid'
'B\'echade, Emilie'
'Masson, Olivier'
'Jouin, Jenny'
'Thomas, Philippe'
_publ_section_title
;
 Well-aligned polycrystalline lanthanum silicate oxyapatite grown by
 reactive diffusion between solid La2SiO5 and gases [SiO+1/2O2]
;
_journal_name_full               'Journal of Solid State Chemistry'
_journal_page_first              1
_journal_page_last               6
_journal_paper_doi               10.1016/j.jssc.2015.12.007
_journal_volume                  235
_journal_year                    2016
_chemical_absolute_configuration .
_chemical_formula_moiety         'La9.48 O26 Si5.89'
_chemical_formula_sum            'La9.48 O26 Si5.89'
_chemical_formula_weight         1899.76
_space_group_IT_number           176
_space_group_name_Hall           '-P 6c'
_space_group_name_H-M_alt        'P 63/m'
_symmetry_cell_setting           hexagonal
_symmetry_Int_Tables_number      176
_symmetry_space_group_name_Hall  '-P 6c'
_symmetry_space_group_name_H-M   'P 63/m'
_cell_angle_alpha                90
_cell_angle_beta                 90
_cell_angle_gamma                120
_cell_formula_units_Z            1
_cell_length_a                   9.7205(13)
_cell_length_b                   9.7205(13)
_cell_length_c                   7.1987(10)
_cell_measurement_temperature    293
_cell_volume                     589.06(14)
_diffrn_ambient_temperature      293
_diffrn_measured_fraction_theta_full 1
_diffrn_measured_fraction_theta_max 1
_diffrn_measurement_device_type  'Bruker APEXII CCD'
_diffrn_radiation_probe          x-ray
_diffrn_radiation_source         'X-ray tube'
_diffrn_radiation_type           'Mo K\a'
_diffrn_radiation_wavelength     0.71073
_diffrn_reflns_av_R_equivalents  0.0815
_diffrn_reflns_av_unetI/netI     0.0344
_diffrn_reflns_limit_h_max       16
_diffrn_reflns_limit_h_min       -16
_diffrn_reflns_limit_k_max       16
_diffrn_reflns_limit_k_min       -16
_diffrn_reflns_limit_l_max       11
_diffrn_reflns_limit_l_min       -11
_diffrn_reflns_number            14623
_diffrn_reflns_theta_full        36.32
_diffrn_reflns_theta_max         36.32
_diffrn_reflns_theta_min         2.42
_exptl_absorpt_coefficient_mu    17.206
_exptl_absorpt_correction_T_max  0.842
_exptl_absorpt_correction_T_min  0.741
_exptl_absorpt_correction_type   multi-scan
_exptl_absorpt_process_details   '(SADABS; Sheldrick: 1996)'
_exptl_crystal_colour            colourless
_exptl_crystal_density_diffrn    5.352
_exptl_crystal_description       prizm
_exptl_crystal_F_000             831
_exptl_crystal_size_max          0.025
_exptl_crystal_size_mid          0.015
_exptl_crystal_size_min          0.005
_refine_diff_density_max         0.72
_refine_diff_density_min         -0.68
_refine_ls_extinction_method     none
_refine_ls_goodness_of_fit_gt    1.17
_refine_ls_goodness_of_fit_ref   1.12
_refine_ls_number_constraints    1
_refine_ls_number_parameters     40
_refine_ls_number_reflns         621
_refine_ls_number_restraints     0
_refine_ls_R_factor_all          0.0273
_refine_ls_R_factor_gt           0.0169
_refine_ls_shift/su_max          0.0198
_refine_ls_shift/su_mean         0.0051
_refine_ls_structure_factor_coef F
_refine_ls_weighting_details     w=1/(\s^2^(F)+0.0001F^2^)
_refine_ls_weighting_scheme      sigma
_refine_ls_wR_factor_gt          0.0201
_refine_ls_wR_factor_ref         0.0215
_reflns_number_gt                502
_reflns_number_total             621
_reflns_threshold_expression     I>3\s(I)
_cod_data_source_file            JSSC-2016-235-1.cif
_cod_data_source_block           I
_cod_depositor_comments
;
The following automatic conversions were performed:

data item '_diffrn_radiation_probe' value 'X-ray' was changed to
'x-ray' in accordance with the built-in table derived from the CIF
Core dictionary named 'cif_core.dic' version 2.4.5 last updated on
2014-11-21.

Automatic conversion script
Id: cif_fix_values 8369 2020-08-20 11:38:08Z andrius 
;
_cod_original_cell_volume        589.1(2)
_cod_database_code               1561591
loop_
_space_group_symop_id
_space_group_symop_operation_xyz
1 x,y,z
2 -y,x-y,z
3 -x+y,-x,z
4 -x,-y,z+1/2
5 y,-x+y,z+1/2
6 x-y,x,z+1/2
7 -x,-y,-z
8 y,-x+y,-z
9 x-y,x,-z
10 x,y,-z+1/2
11 -y,x-y,-z+1/2
12 -x+y,-x,-z+1/2
loop_
_atom_site_label
_atom_site_type_symbol
_atom_site_fract_x
_atom_site_fract_y
_atom_site_fract_z
_atom_site_adp_type
_atom_site_U_iso_or_equiv
_atom_site_site_symmetry_multiplicity
_atom_site_occupancy
_atom_site_calc_flag
_atom_site_refinement_flags
_atom_site_disorder_assembly
_atom_site_disorder_group
La1 La 0.333333 0.666667 0.00094(8) Uani 0.01227(14) 4 0.871(2) d . . .
La2 La 0.24251(4) 0.22941(4) 0.25 Uani 0.00849(13) 6 1 d . . .
Si Si 0.03034(17) 0.40181(17) 0.25 Uani 0.0051(5) 6 0.9810(11) d . . .
O1 O 0.1218(5) 0.5951(5) 0.25 Uani 0.0131(16) 6 1 d . . .
O2 O 0.4856(6) 0.1612(5) 0.25 Uani 0.0179(18) 6 1 d . . .
O3 O 0.0912(4) 0.3460(4) 0.0703(4) Uani 0.0237(16) 12 1 d . . .
O4 O 0 0 0.25 Uani 0.040(3) 2 1 d . . .
loop_
_atom_site_aniso_label
_atom_site_aniso_type_symbol
_atom_site_aniso_U_11
_atom_site_aniso_U_22
_atom_site_aniso_U_33
_atom_site_aniso_U_12
_atom_site_aniso_U_13
_atom_site_aniso_U_23
La1 La 0.00760(16) 0.00760(16) 0.0216(3) 0.00380(8) 0 0
La2 La 0.00893(16) 0.00954(16) 0.00871(16) 0.00590(12) 0 0
Si Si 0.0052(6) 0.0047(6) 0.0054(7) 0.0025(6) 0 0
O1 O 0.014(2) 0.0102(19) 0.018(2) 0.0085(17) 0 0
O2 O 0.027(2) 0.0088(19) 0.014(2) 0.0060(19) 0 0
O3 O 0.0298(18) 0.047(2) 0.0103(16) 0.0307(17) -0.0085(13) -0.0130(15)
O4 O 0.017(3) 0.017(3) 0.085(9) 0.0087(13) 0 0
loop_
_atom_type_symbol
_atom_type_scat_dispersion_real
_atom_type_scat_dispersion_imag
_atom_type_scat_source
La -0.2871 2.4523 'International Tables Vol C tables 4.2.6.8 and 6.1.1.1'
O 0.0106 0.0060 'International Tables Vol C tables 4.2.6.8 and 6.1.1.1'
Si 0.0817 0.0704 'International Tables Vol C tables 4.2.6.8 and 6.1.1.1'
loop_
_geom_angle_atom_site_label_1
_geom_angle_atom_site_label_2
_geom_angle_atom_site_label_3
_geom_angle_site_symmetry_1
_geom_angle_site_symmetry_2
_geom_angle_site_symmetry_3
_geom_angle
O1 La1 O1 . . 2_665 75.99(14)
O1 La1 O1 . . 3_565 75.99(12)
O1 La1 O2 . . 4_664 153.57(18)
O1 La1 O2 . . 5_564 93.17(12)
O1 La1 O2 . . 6_554 125.33(13)
O1 La1 O3 . . . 57.80(12)
O1 La1 O3 . . 2_665 124.98(10)
O1 La1 O3 . . 3_565 65.84(13)
O1 La1 O1 2_665 . 3_565 75.99(16)
O1 La1 O2 2_665 . 4_664 125.33(16)
O1 La1 O2 2_665 . 5_564 153.56(16)
O1 La1 O2 2_665 . 6_554 93.17(17)
O1 La1 O3 2_665 . . 65.84(12)
O1 La1 O3 2_665 . 2_665 57.80(12)
O1 La1 O3 2_665 . 3_565 124.98(13)
O1 La1 O2 3_565 . 4_664 93.17(9)
O1 La1 O2 3_565 . 5_564 125.3(2)
O1 La1 O2 3_565 . 6_554 153.6(2)
O1 La1 O3 3_565 . . 124.98(9)
O1 La1 O3 3_565 . 2_665 65.84(18)
O1 La1 O3 3_565 . 3_565 57.80(17)
O2 La1 O2 4_664 . 5_564 73.28(13)
O2 La1 O2 4_664 . 6_554 73.28(12)
O2 La1 O3 4_664 . . 141.13(10)
O2 La1 O3 4_664 . 2_665 68.76(14)
O2 La1 O3 4_664 . 3_565 87.91(15)
O2 La1 O2 5_564 . 6_554 73.3(2)
O2 La1 O3 5_564 . . 87.91(14)
O2 La1 O3 5_564 . 2_665 141.13(10)
O2 La1 O3 5_564 . 3_565 68.77(17)
O2 La1 O3 6_554 . . 68.76(12)
O2 La1 O3 6_554 . 2_665 87.91(19)
O2 La1 O3 6_554 . 3_565 141.13(16)
O3 La1 O3 . . 2_665 117.01(14)
O3 La1 O3 . . 3_565 117.01(13)
O3 La1 O3 2_665 . 3_565 117.01(14)
O1 La2 O2 2_665 . . 98.96(15)
O1 La2 O3 2_665 . . 70.46(13)
O1 La2 O3 2_665 . 5_555 83.95(12)
O1 La2 O3 2_665 . 8_555 83.95(12)
O1 La2 O3 2_665 . 10_555 70.46(13)
O1 La2 O4 2_665 . . 150.31(13)
O2 La2 O3 . . . 147.50(8)
O2 La2 O3 . . 5_555 70.71(13)
O2 La2 O3 . . 8_555 70.71(13)
O2 La2 O3 . . 10_555 147.50(8)
O2 La2 O4 . . . 110.73(8)
O3 La2 O3 . . 5_555 135.05(17)
O3 La2 O3 . . 8_555 77.53(16)
O3 La2 O3 . . 10_555 59.52(12)
O3 La2 O4 . . . 83.90(6)
O3 La2 O3 5_555 . 8_555 137.00(14)
O3 La2 O3 5_555 . 10_555 77.53(16)
O3 La2 O4 5_555 . . 105.39(8)
O3 La2 O3 8_555 . 10_555 135.05(17)
O3 La2 O4 8_555 . . 105.39(8)
O3 La2 O4 10_555 . . 83.90(6)
O1 Si O2 . . 2_555 111.9(3)
O1 Si O3 . . . 107.79(16)
O1 Si O3 . . 10_555 107.79(16)
O2 Si O3 2_555 . . 111.73(18)
O2 Si O3 2_555 . 10_555 111.73(18)
O3 Si O3 . . 10_555 105.6(2)
loop_
_geom_bond_atom_site_label_1
_geom_bond_atom_site_label_2
_geom_bond_site_symmetry_1
_geom_bond_site_symmetry_2
_geom_bond_distance
La1 O1 . . 2.549(3)
La1 O1 . 2_665 2.549(5)
La1 O1 . 3_565 2.549(3)
La1 O2 . 4_664 2.493(3)
La1 O2 . 5_564 2.493(4)
La1 O2 . 6_554 2.493(4)
La1 O3 . . 2.858(3)
La1 O3 . 2_665 2.858(4)
La1 O3 . 3_565 2.858(5)
La2 O1 . 2_665 2.506(6)
La2 O2 . . 2.755(6)
La2 O3 . . 2.606(5)
La2 O3 . 5_555 2.478(3)
La2 O3 . 8_555 2.478(3)
La2 O3 . 10_555 2.606(5)
La2 O4 . . 2.2963(2)
Si O1 . . 1.628(4)
Si O2 . 2_555 1.623(5)
Si O3 . . 1.624(4)
Si O3 . 10_555 1.624(4)
loop_
_refln_index_h
_refln_index_k
_refln_index_l
_refln_F_squared_calc
_refln_F_squared_meas
_refln_F_squared_sigma
_refln_observed_status
0 1 0 125.39 66.17 15.91 o
-1 2 0 2612.26 2836.21 63.62 o
0 2 0 22736.30 23438.20 291.59 o
-2 3 0 18009.30 18025.40 260.18 o
-1 3 0 37609.50 37381.70 458.11 o
0 3 0 58252.40 60308.20 725.35 o
-3 4 0 12009.60 13345.20 192.04 o
-2 4 0 2741.52 2685.60 74.03 o
-1 4 0 8127.15 8339.18 137.65 o
0 4 0 18124.10 18509.20 254.68 o
-4 5 0 82401.40 84804.20 1023.42 o
-3 5 0 12857.30 13063.20 194.79 o
-2 5 0 12660.60 12646.30 190.86 o
-1 5 0 45539.40 47288.60 589.86 o
0 5 0 6184.61 6416.63 127.04 o
-5 6 0 1327.44 1284.78 69.12 o
-4 6 0 19114.00 19712.50 295.91 o
-3 6 0 1120.66 1130.05 63.03 o
-2 6 0 14804.00 14304.60 217.96 o
-1 6 0 11870.80 11548.50 190.47 o
0 6 0 4413.61 4091.73 118.80 o
-6 7 0 19476.70 19413.20 290.22 o
-5 7 0 2065.27 2059.81 94.06 o
-4 7 0 3052.50 3502.26 124.88 o
-3 7 0 3851.03 3871.61 110.35 o
-2 7 0 13623.90 13254.20 216.39 o
-1 7 0 24470.10 24307.10 347.36 o
0 7 0 4901.34 4765.05 140.20 o
-7 8 0 32144.50 31300.20 461.25 o
-6 8 0 11928.40 11709.30 224.44 o
-5 8 0 214.10 147.47 71.67 <
-4 8 0 56141.60 55694.90 747.15 o
-3 8 0 4628.23 4656.46 147.86 o
-2 8 0 5606.50 5418.53 140.40 o
-1 8 0 3155.87 3137.23 114.48 o
0 8 0 10380.10 10517.40 219.73 o
-8 9 0 5528.15 5608.22 181.63 o
-7 9 0 3403.52 3079.70 138.24 o
-6 9 0 355.17 347.95 81.49 o
-5 9 0 26.38 -28.67 64.99 <
-4 9 0 9191.43 9371.05 204.21 o
-3 9 0 10761.70 10631.10 220.51 o
-2 9 0 13831.30 14581.60 299.05 o
-1 9 0 178.97 130.19 94.65 <
0 9 0 29969.80 29749.80 556.88 o
-9 10 0 54.44 274.71 109.18 <
-8 10 0 7062.02 6802.67 205.20 o
-7 10 0 8064.28 8199.18 224.83 o
-6 10 0 9477.69 9028.40 244.27 o
-5 10 0 13105.00 12875.30 272.55 o
-4 10 0 581.53 585.35 93.86 o
-3 10 0 13069.30 12893.10 279.42 o
-2 10 0 2253.51 1982.05 149.23 o
-1 10 0 3532.75 3642.07 199.70 o
0 10 0 2757.68 2907.69 179.87 o
-10 11 0 3913.66 3730.63 224.44 o
-9 11 0 9712.76 9501.04 320.26 o
-8 11 0 2870.45 2986.43 169.26 o
-7 11 0 5552.13 7143.75 234.26 o
-6 11 0 9336.68 8726.99 248.79 o
-5 11 0 7891.30 7747.35 241.72 o
-4 11 0 2144.96 2098.29 142.56 o
-3 11 0 1718.27 1841.46 164.55 o
-2 11 0 2834.16 2779.66 180.26 o
-1 11 0 41.52 -98.97 116.83 <
0 11 0 4475.08 4140.43 240.54 o
-11 12 0 211.79 148.64 145.31 <
-10 12 0 8191.77 8504.12 334.01 o
-9 12 0 2259.52 2316.06 193.81 o
-8 12 0 804.54 748.33 139.81 o
-7 12 0 101.13 158.07 112.91 <
-6 12 0 1712.23 1811.02 148.84 o
-5 12 0 7669.33 8341.93 284.92 o
-4 12 0 1510.23 1345.06 160.82 o
-3 12 0 25536.10 25323.10 568.66 o
-2 12 0 1489.31 1481.53 179.08 o
-1 12 0 3022.21 2899.83 203.43 o
-10 13 0 2754.20 2744.32 222.87 o
-9 13 0 493.99 313.59 144.91 <
-8 13 0 27297.90 26940.10 562.18 o
-7 13 0 1283.76 1330.14 161.21 o
-6 13 0 6140.36 6415.06 268.82 o
-5 13 0 9514.38 9146.81 342.06 o
-4 13 0 7430.08 7078.75 306.91 o
-3 13 0 58.72 23.17 143.74 <
0 1 1 45.05 57.14 16.69 o
-1 2 1 10392.30 10102.50 99.75 o
0 2 1 181.76 59.69 23.96 <
-2 3 1 33843.90 33840.70 296.11 o
-1 3 1 60690.00 60887.70 540.97 o
0 3 1 12.00 39.66 26.12 <
-3 4 1 33.57 32.79 27.49 <
-2 4 1 5997.88 6161.75 83.65 o
-1 4 1 2824.57 3070.67 57.14 o
0 4 1 88.65 15.12 28.47 <
-4 5 1 162.16 137.65 32.40 o
-3 5 1 15250.50 15257.70 172.40 o
-2 5 1 26245.40 26516.00 272.35 o
-1 5 1 2214.67 2232.21 57.34 o
0 5 1 150.76 213.64 35.15 o
-5 6 1 5264.35 5148.93 95.63 o
-4 6 1 1332.66 1271.43 51.25 o
-3 6 1 30303.40 29698.40 299.25 o
-2 6 1 3668.96 3643.25 74.62 o
-1 6 1 13135.50 12978.00 147.07 o
0 6 1 2553.57 2336.28 63.23 o
-6 7 1 9046.09 8788.65 129.60 o
-5 7 1 16960.50 16105.20 182.02 o
-4 7 1 90.31 59.30 38.88 <
-3 7 1 11953.60 12341.80 150.21 o
-2 7 1 7459.68 7504.26 110.55 o
-1 7 1 20249.00 20278.00 213.64 o
0 7 1 2653.41 2627.48 75.01 o
-7 8 1 1028.99 1142.03 65.19 o
-6 8 1 10338.00 10239.90 147.27 o
-5 8 1 3300.81 3341.05 83.26 o
-4 8 1 1286.39 1168.53 58.12 o
-3 8 1 631.18 648.38 51.84 o
-2 8 1 2378.37 2326.07 79.72 o
-1 8 1 2990.76 3087.16 90.13 o
0 8 1 237.46 233.47 55.18 o
-8 9 1 6.04 -70.69 57.34 <
-7 9 1 595.74 604.39 65.78 o
-6 9 1 3935.30 3861.40 109.37 o
-5 9 1 2471.47 2390.28 85.81 o
-4 9 1 677.11 656.23 60.28 o
-3 9 1 5045.07 5041.72 114.28 o
-2 9 1 7893.55 7575.93 142.36 o
-1 9 1 899.57 874.78 76.19 o
0 9 1 474.15 357.77 71.28 o
-9 10 1 296.98 399.39 85.02 o
-8 10 1 1493.58 1466.21 91.11 o
-7 10 1 11534.20 11310.90 182.81 o
-6 10 1 10706.50 10609.10 174.96 o
-5 10 1 1688.55 1669.45 90.91 o
-4 10 1 209.44 250.55 62.64 o
-3 10 1 9734.75 9905.73 169.46 o
-2 10 1 11022.80 11294.20 197.73 o
-1 10 1 625.23 867.12 96.41 o
0 10 1 3323.09 3333.39 134.90 o
-10 11 1 1914.17 2017.98 127.24 o
-9 11 1 11953.40 11805.50 222.67 o
-8 11 1 113.50 62.64 73.63 <
-7 11 1 4131.83 4210.73 129.79 o
-6 11 1 3020.06 2907.29 114.87 o
-5 11 1 12681.50 12511.20 221.89 o
-4 11 1 2210.61 2304.67 107.61 o
-3 11 1 854.53 778.17 88.36 o
-2 11 1 20.29 139.81 86.20 <
-1 11 1 15994.90 15678.10 274.51 o
0 11 1 1898.32 1916.27 126.46 o
-11 12 1 148.52 118.40 108.59 <
-10 12 1 5916.74 5807.32 196.95 o
-9 12 1 5413.04 5399.29 181.04 o
-8 12 1 605.15 645.83 93.66 o
-7 12 1 358.43 321.64 83.85 o
-6 12 1 3432.67 3487.14 135.10 o
-5 12 1 1621.04 1707.93 107.80 o
-4 12 1 71.88 34.56 93.66 <
-3 12 1 234.09 49.68 95.63 <
-2 12 1 535.23 613.62 105.84 o
-1 12 1 1848.40 1959.27 140.00 o
-9 13 1 194.51 195.57 106.82 <
-8 13 1 12.07 -27.88 95.04 <
-7 13 1 228.17 339.31 106.03 o
-6 13 1 873.53 875.96 105.84 o
-5 13 1 248.11 267.44 106.82 <
-4 13 1 135.04 16.10 105.44 <
0 0 2 52801.30 51217.00 1068.59 o
0 1 2 26966.80 26940.90 237.79 o
-1 2 2 50254.90 50840.50 444.36 o
0 2 2 2660.99 2861.74 53.80 o
-2 3 2 1304.63 1419.87 42.02 o
-1 3 2 4.53 -26.90 27.10 <
0 3 2 9199.09 9770.64 115.85 o
-3 4 2 27339.50 27307.70 278.83 o
-2 4 2 59622.30 60289.50 533.11 o
-1 4 2 8929.56 8955.55 110.94 o
0 4 2 71065.30 69762.90 615.00 o
-4 5 2 1254.70 1212.52 47.52 o
-3 5 2 1564.93 1562.43 50.27 o
-2 5 2 1970.82 1863.25 53.61 o
-1 5 2 3433.73 3477.91 71.47 o
0 5 2 48594.90 48630.30 445.73 o
-5 6 2 6471.84 6361.06 100.73 o
-4 6 2 61.42 56.75 36.92 <
-3 6 2 34597.50 34668.60 357.18 o
-2 6 2 1568.21 1649.81 56.55 o
-1 6 2 348.80 342.45 41.43 o
0 6 2 18952.60 18695.40 204.41 o
-6 7 2 1702.32 1739.94 71.08 o
-5 7 2 45790.20 45790.20 443.18 o
-4 7 2 3783.85 3744.96 90.52 o
-3 7 2 2856.24 2729.00 76.19 o
-2 7 2 16296.60 16210.60 191.65 o
-1 7 2 1214.37 1191.51 62.83 o
0 7 2 2008.39 1992.26 78.74 o
-7 8 2 105.05 80.70 55.57 <
-6 8 2 434.44 448.29 54.20 o
-5 8 2 7495.35 7735.18 133.52 o
-4 8 2 1891.58 1945.13 74.62 o
-3 8 2 29084.80 29036.60 306.71 o
-2 8 2 1759.59 1735.23 73.24 o
-1 8 2 19025.00 18839.70 232.29 o
0 8 2 31162.00 31429.80 355.61 o
-8 9 2 28883.80 28173.20 344.02 o
-7 9 2 1639.04 1594.24 88.56 o
-6 9 2 23699.60 23999.80 288.65 o
-5 9 2 11553.20 11566.30 210.10 o
-4 9 2 28468.10 28200.30 325.17 o
-3 9 2 6547.06 6296.85 142.95 o
-2 9 2 324.26 323.80 60.48 o
-1 9 2 2502.01 2313.70 97.00 o
0 9 2 1.73 -19.64 64.21 <
-9 10 2 6459.09 6701.74 166.12 o
-8 10 2 7235.07 7571.42 170.44 o
-7 10 2 178.38 126.26 67.74 <
-6 10 2 7.16 -129.99 59.69 <
-5 10 2 5336.23 5452.50 133.52 o
-4 10 2 1999.93 2026.23 94.45 o
-3 10 2 290.91 286.29 68.14 o
-2 10 2 13320.70 13068.70 216.78 o
-1 10 2 308.87 365.62 77.95 o
0 10 2 834.46 870.85 98.77 o
-10 11 2 6328.08 6151.15 198.72 o
-9 11 2 704.13 752.65 95.23 o
-8 11 2 42.02 -169.65 75.01 <
-7 11 2 6345.26 6423.30 163.76 o
-6 11 2 108.54 43.40 72.85 <
-5 11 2 158.53 89.54 74.03 <
-4 11 2 10024.90 10011.60 195.97 o
-3 11 2 1369.39 1431.46 104.46 o
-2 11 2 437.55 512.30 97.20 o
-1 11 2 18753.70 18329.30 362.09 o
0 11 2 45.51 175.15 117.82 <
-11 12 2 1841.51 1789.42 151.00 o
-10 12 2 313.28 388.01 109.18 o
-9 12 2 7984.20 7862.42 209.32 o
-8 12 2 10280.30 10442.20 228.56 o
-7 12 2 7696.18 7902.08 212.26 o
-6 12 2 10756.20 10482.40 236.02 o
-5 12 2 57.80 -7.27 85.81 <
-4 12 2 11447.00 11357.80 238.18 o
-3 12 2 56.59 -21.80 96.22 <
-2 12 2 1050.45 1350.56 138.83 o
-1 12 2 107.26 438.67 126.65 o
-9 13 2 7317.12 7154.35 223.46 o
-8 13 2 1456.49 1542.79 126.85 o
-7 13 2 7843.67 7968.45 223.06 o
-6 13 2 252.87 271.17 107.41 <
-5 13 2 735.98 939.78 115.26 o
-4 13 2 18883.60 18579.70 361.50 o
0 1 3 372.40 381.13 29.85 o
-1 2 3 19655.40 20124.10 200.88 o
0 2 3 3128.11 3254.85 59.69 o
-2 3 3 26665.90 27306.10 259.59 o
-1 3 3 52498.40 53172.50 473.82 o
0 3 3 22.59 34.36 28.28 <
-3 4 3 24.06 -5.30 31.61 <
-2 4 3 2886.98 2884.52 63.03 o
-1 4 3 123.22 101.52 32.20 o
0 4 3 11.55 -38.49 32.01 <
-4 5 3 1069.15 1216.25 52.23 o
-3 5 3 7038.84 6818.77 100.73 o
-2 5 3 22320.20 22119.70 225.62 o
-1 5 3 2874.83 2783.98 69.31 o
0 5 3 549.10 543.52 46.54 o
-5 6 3 2614.72 2604.51 79.13 o
-4 6 3 3258.96 3109.94 75.60 o
-3 6 3 17138.80 17095.60 189.49 o
-2 6 3 3596.68 3469.86 81.29 o
-1 6 3 12227.20 12600.80 185.17 o
0 6 3 1289.68 1329.74 64.80 o
-6 7 3 8618.67 8596.80 141.57 o
-5 7 3 14997.00 15058.20 192.63 o
-4 7 3 6.55 -47.91 43.79 <
-3 7 3 12669.90 12689.70 175.35 o
-2 7 3 7034.89 6934.82 124.10 o
-1 7 3 14287.10 14472.30 183.60 o
0 7 3 723.56 737.53 63.42 o
-7 8 3 293.63 462.82 70.49 o
-6 8 3 7571.48 7479.91 149.43 o
-5 8 3 3091.30 3150.78 98.38 o
-4 8 3 76.88 39.86 54.39 <
-3 8 3 457.88 285.11 56.75 o
-2 8 3 4549.03 4236.06 110.94 o
-1 8 3 2149.44 2153.08 91.11 o
0 8 3 160.74 110.16 64.60 <
-8 9 3 111.34 208.53 70.89 <
-7 9 3 940.12 846.90 78.15 o
-6 9 3 1759.06 1725.80 92.88 o
-5 9 3 1780.08 1909.20 90.72 o
-4 9 3 513.80 553.93 69.51 o
-3 9 3 2813.71 2812.26 106.82 o
-2 9 3 6757.66 6738.85 165.92 o
-1 9 3 772.73 718.67 83.85 o
0 9 3 399.19 338.72 81.10 o
-9 10 3 774.37 650.93 98.97 o
-8 10 3 1343.19 1438.33 118.60 o
-7 10 3 8920.72 8787.27 185.76 o
-6 10 3 7794.56 8609.37 181.04 o
-5 10 3 1189.49 1230.58 92.09 o
-4 10 3 216.63 178.49 73.63 <
-3 10 3 9937.61 9788.70 198.52 o
-2 10 3 11236.60 11241.20 215.80 o
-1 10 3 910.30 808.02 110.94 o
0 10 3 2522.56 2985.84 150.80 o
-10 11 3 2302.11 2168.59 170.83 o
-9 11 3 9938.47 10304.90 232.10 o
-8 11 3 77.70 -28.47 81.49 <
-7 11 3 4040.04 3988.65 144.52 o
-6 11 3 1416.25 1453.25 104.66 o
-5 11 3 12089.50 12287.60 222.48 o
-4 11 3 2125.15 2363.97 117.23 o
-3 11 3 1574.73 1565.77 113.69 o
-2 11 3 142.65 189.29 103.68 <
-1 11 3 16036.30 16277.60 315.35 o
0 11 3 1330.54 1283.01 140.59 o
-10 12 3 4253.15 4237.04 180.45 o
-9 12 3 4214.55 4090.95 173.38 o
-8 12 3 404.07 298.47 99.95 <
-7 12 3 157.88 235.43 91.11 <
-6 12 3 3051.09 3130.75 140.79 o
-5 12 3 2277.23 2156.61 126.65 o
-4 12 3 68.25 96.61 95.82 <
-3 12 3 194.96 147.47 124.10 <
-2 12 3 596.05 383.29 121.74 o
-7 13 3 275.92 318.49 106.82 <
-6 13 3 473.09 628.94 116.64 o
0 0 4 197101.00 191641.00 3912.06 o
0 1 4 53.52 38.29 30.44 <
-1 2 4 2525.63 2374.77 56.36 o
0 2 4 8802.58 8834.79 109.18 o
-2 3 4 16965.70 17056.40 182.02 o
-1 3 4 17667.30 17776.40 192.04 o
0 3 4 25013.20 24643.30 250.55 o
-3 4 4 1085.17 1036.19 49.29 o
-2 4 4 541.66 536.65 41.82 o
-1 4 4 1968.56 1984.01 59.30 o
0 4 4 12592.60 12862.10 151.79 o
-4 5 4 53333.80 53673.40 507.98 o
-3 5 4 6149.99 5684.01 102.30 o
-2 5 4 5692.27 5663.00 105.05 o
-1 5 4 24924.90 24785.10 260.77 o
0 5 4 7168.14 7290.23 120.37 o
-5 6 4 799.84 866.53 67.55 o
-4 6 4 11140.40 10921.30 156.11 o
-3 6 4 867.97 748.91 60.87 o
-2 6 4 15475.00 15376.50 187.72 o
-1 6 4 11148.20 11215.60 163.96 o
0 6 4 3337.05 3272.92 93.66 o
-6 7 4 15640.40 15334.70 239.17 o
-5 7 4 20.04 1.37 56.36 <
-4 7 4 1750.25 1694.58 77.17 o
-3 7 4 2428.54 2325.88 86.01 o
-2 7 4 4991.15 4765.64 119.97 o
-1 7 4 15614.30 15251.00 216.98 o
0 7 4 2456.63 2579.96 105.25 o
-7 8 4 22740.60 21951.40 298.27 o
-6 8 4 10867.10 11250.80 187.72 o
-5 8 4 125.49 54.59 63.62 <
-4 8 4 43025.50 42588.20 470.08 o
-3 8 4 3984.38 3817.42 114.87 o
-2 8 4 2757.85 2842.89 106.62 o
-1 8 4 1760.20 1806.70 99.16 o
0 8 4 7080.64 7328.72 178.10 o
-8 9 4 5719.21 5892.94 165.92 o
-7 9 4 1920.29 2003.26 103.09 o
-6 9 4 278.08 247.02 70.69 o
-5 9 4 183.90 207.55 69.90 <
-4 9 4 5819.06 5904.91 146.29 o
-3 9 4 7395.28 7153.76 170.44 o
-2 9 4 9383.95 9045.29 190.27 o
-1 9 4 641.23 504.25 89.54 o
0 9 4 20317.10 20808.20 325.76 o
-9 10 4 5.77 -124.88 92.49 <
-8 10 4 4100.69 4565.16 159.64 o
-7 10 4 6454.08 6398.37 190.27 o
-6 10 4 6181.31 6074.57 169.07 o
-5 10 4 6881.93 7067.75 180.26 o
-4 10 4 886.53 760.70 91.31 o
-3 10 4 8330.83 8180.91 200.29 o
-2 10 4 1164.21 1232.55 110.75 o
-1 10 4 2921.38 2986.82 139.81 o
0 10 4 1619.63 1692.42 127.63 o
-10 11 4 2541.62 2245.17 144.32 o
-9 11 4 7884.37 8588.56 231.12 o
-8 11 4 3243.49 3112.69 150.61 o
-7 11 4 3707.48 3657.58 150.41 o
-6 11 4 6485.41 6557.42 182.22 o
-5 11 4 6515.50 6710.58 189.49 o
-4 11 4 1561.54 1628.01 117.62 o
-3 11 4 1012.57 1090.58 119.39 o
-2 11 4 2025.52 2348.26 139.41 o
-1 11 4 29.37 4.71 104.66 <
-9 12 4 1249.92 1398.27 131.36 o
-8 12 4 883.45 679.60 116.05 o
-7 12 4 269.20 214.82 98.97 <
-6 12 4 932.66 997.51 112.91 o
-5 12 4 4958.26 4429.47 171.62 o
-4 12 4 1362.71 1419.48 131.56 o
-3 12 4 16789.00 16945.40 345.98 o
0 1 5 69.62 56.75 33.77 <
-1 2 5 4450.77 4354.07 82.27 o
0 2 5 33.74 58.71 36.52 <
-2 3 5 17016.70 16810.50 191.65 o
-1 3 5 27545.90 27725.10 277.85 o
0 3 5 41.88 36.72 43.00 <
-3 4 5 43.21 117.23 42.81 <
-2 4 5 3484.86 3421.76 81.69 o
-1 4 5 1669.84 1579.71 64.60 o
0 4 5 196.62 125.28 45.36 <
-4 5 5 29.10 18.07 46.93 <
-3 5 5 9198.55 9185.29 142.16 o
-2 5 5 14409.20 13987.10 178.10 o
-1 5 5 1111.32 1039.33 65.78 o
0 5 5 63.64 130.77 53.41 <
-5 6 5 3778.60 3688.41 112.91 o
-4 6 5 545.53 555.89 59.69 o
-3 6 5 18786.00 18533.20 227.78 o
-2 6 5 2349.97 2424.84 91.31 o
-1 6 5 7849.19 7899.92 149.04 o
0 6 5 1760.83 1819.86 87.58 o
-6 7 5 4856.34 4813.55 134.90 o
-5 7 5 10969.50 10464.00 187.52 o
-4 7 5 113.15 88.75 58.51 <
-3 7 5 6332.38 6446.28 151.59 o
-2 7 5 4335.85 4337.18 131.17 o
-1 7 5 13343.90 13263.70 214.23 o
0 7 5 1768.64 1731.10 101.32 o
-7 8 5 913.48 860.84 86.20 o
-6 8 5 7119.66 6761.83 164.35 o
-5 8 5 1847.85 1802.38 106.82 o
-4 8 5 866.77 832.37 85.22 o
-3 8 5 463.02 460.07 76.97 o
-2 8 5 1066.22 1040.70 86.99 o
-1 8 5 2094.23 1915.29 111.93 o
0 8 5 166.15 -14.14 81.69 <
-8 9 5 8.93 127.83 87.38 <
-7 9 5 343.03 389.97 86.99 o
-6 9 5 2968.55 3109.54 129.20 o
-5 9 5 1645.44 1810.63 110.94 o
-4 9 5 406.63 479.51 93.27 o
-3 9 5 3448.62 3372.27 125.28 o
-2 9 5 5047.49 4901.13 161.80 o
-1 9 5 730.86 780.92 100.73 o
0 9 5 276.69 378.58 97.00 o
-9 10 5 102.89 40.06 100.54 <
-8 10 5 1004.85 1002.81 116.64 o
-7 10 5 7916.49 7555.90 205.98 o
-6 10 5 7507.13 7588.89 200.88 o
-5 10 5 1171.78 1228.82 109.18 o
-4 10 5 185.27 330.47 91.50 o
-3 10 5 6406.06 6277.41 186.74 o
-2 10 5 7032.87 7062.06 203.62 o
-1 10 5 369.28 455.36 103.09 o
0 10 5 2265.96 2248.90 144.91 o
-9 11 5 8635.99 8787.08 251.54 o
-8 11 5 82.59 86.99 104.86 <
-7 11 5 2767.54 2633.77 147.47 o
-6 11 5 2552.06 2687.96 147.47 o
-5 11 5 8368.73 8836.17 247.22 o
-4 11 5 1365.91 1316.39 129.79 o
-3 11 5 498.99 380.35 111.53 o
-2 11 5 2.43 -16.89 100.14 <
0 0 6 34750.70 39024.40 906.00 o
0 1 6 10138.30 9891.60 136.67 o
-1 2 6 24048.50 24088.80 255.86 o
0 2 6 1.17 54.59 47.91 <
-2 3 6 2.76 -13.55 43.98 <
-1 3 6 1182.30 1079.98 61.07 o
0 3 6 1169.17 1131.62 62.44 o
-3 4 6 16303.70 15810.10 221.89 o
-2 4 6 20956.30 20458.70 236.81 o
-1 4 6 1133.19 1311.68 70.30 o
0 4 6 29589.80 29624.50 336.36 o
-4 5 6 633.74 630.90 77.95 o
-3 5 6 136.79 173.19 59.50 <
-2 5 6 70.07 16.10 54.00 <
-1 5 6 1150.94 1114.73 73.63 o
0 5 6 18859.00 19107.10 257.62 o
-5 6 6 2205.67 1997.37 94.65 o
-4 6 6 301.92 303.96 90.13 o
-3 6 6 19101.60 19073.50 265.87 o
-2 6 6 174.09 101.12 63.42 <
-1 6 6 12.19 -37.70 63.82 <
0 6 6 11305.20 11619.20 205.00 o
-6 7 6 819.45 737.72 86.01 o
-5 7 6 15421.20 15395.30 250.95 o
-4 7 6 965.15 782.69 92.09 o
-3 7 6 1039.86 1019.69 100.14 o
-2 7 6 5312.62 5299.34 149.63 o
-1 7 6 1604.56 1482.71 104.86 o
0 7 6 306.92 261.94 86.79 o
-7 8 6 16.25 127.83 89.54 <
-6 8 6 203.10 269.40 90.91 <
-5 8 6 3277.76 3434.52 140.99 o
-4 8 6 987.26 1021.07 102.50 o
-3 8 6 13602.70 13833.10 258.61 o
-2 8 6 218.66 214.62 82.67 <
-1 8 6 8984.36 9058.84 216.78 o
0 8 6 18368.70 18982.00 316.92 o
-8 9 6 13860.90 14179.90 274.90 o
-7 9 6 365.38 320.85 105.84 o
-6 9 6 13540.60 14493.50 280.60 o
-5 9 6 4799.86 4622.10 164.94 o
-4 9 6 17219.40 17602.20 299.05 o
-3 9 6 3006.04 2950.10 143.74 o
-2 9 6 649.23 564.73 104.27 o
-1 9 6 2355.40 2468.04 137.26 o
0 9 6 124.95 30.24 98.38 <
-9 10 6 2545.74 2664.59 164.94 o
-8 10 6 3139.18 3273.31 166.90 o
-7 10 6 117.54 101.32 100.14 <
-6 10 6 201.64 176.33 103.09 <
-5 10 6 1480.37 1463.86 122.14 o
-4 10 6 1637.25 1519.03 127.44 o
-3 10 6 707.01 613.62 116.64 o
-2 10 6 6770.07 7043.21 208.14 o
-1 10 6 107.84 -28.67 99.75 <
-6 11 6 294.99 299.64 111.73 <
-5 11 6 157.68 115.07 116.83 <
0 1 7 22.06 4.12 50.27 <
-1 2 7 4411.38 4332.67 113.30 o
0 2 7 178.36 157.28 55.18 <
-2 3 7 10088.70 9956.98 165.92 o
-1 3 7 18673.70 19039.60 241.13 o
0 3 7 13.53 -40.25 54.00 <
-3 4 7 6.65 -48.70 61.66 <
-2 4 7 1942.62 2022.30 93.47 o
-1 4 7 93.28 62.05 69.12 <
0 4 7 26.55 47.52 62.83 <
-4 5 7 187.02 176.92 71.08 <
-3 5 7 4880.96 4680.42 141.38 o
-2 5 7 8102.86 8181.50 174.96 o
-1 5 7 841.52 1207.61 89.15 o
0 5 7 2.06 -156.50 71.47 <
-5 6 7 1912.70 1912.34 111.34 o
-4 6 7 750.34 595.16 90.91 o
-3 6 7 10618.20 10628.50 220.32 o
-2 6 7 2006.64 1911.56 108.39 o
-1 6 7 5761.86 5736.44 162.98 o
0 6 7 653.11 597.13 93.66 o
-6 7 7 3912.32 3891.45 157.28 o
-5 7 7 7496.33 7267.45 193.81 o
-4 7 7 0.62 80.90 81.88 <
-3 7 7 4737.91 3996.89 147.47 o
-2 7 7 3237.08 3209.88 140.99 o
-1 7 7 8098.54 7692.96 210.50 o
0 7 7 920.63 839.63 109.76 o
-7 8 7 332.70 62.05 105.05 <
-6 8 7 3908.48 4322.65 169.26 o
-5 8 7 1801.78 1920.98 124.29 o
-4 8 7 261.22 279.81 94.45 <
-3 8 7 201.10 138.83 110.16 <
-2 8 7 1629.18 1722.27 131.56 o
-1 8 7 1513.57 1727.96 133.33 o
0 8 7 66.63 -163.37 99.16 <
-8 9 7 3.44 -155.91 110.55 <
-7 9 7 297.67 343.24 117.82 <
-6 9 7 1467.72 1618.39 126.85 o
-5 9 7 940.44 916.41 113.89 o
-4 9 7 368.90 196.36 101.71 <
-3 9 7 2115.75 2117.54 145.70 o
-2 9 7 4182.88 4362.91 189.09 o
-1 9 7 401.61 248.20 113.89 <
0 0 8 51013.30 51743.00 1412.80 o
0 1 8 172.49 231.31 74.62 o
-1 2 8 279.34 369.55 74.03 o
0 2 8 2636.32 2410.31 101.91 o
-2 3 8 6571.86 6473.18 162.00 o
-1 3 8 6200.44 6191.60 157.68 o
0 3 8 6889.83 7259.99 173.19 o
-3 4 8 177.89 -52.62 77.37 <
-2 4 8 2.76 -75.60 74.03 <
-1 4 8 283.22 225.03 80.11 <
0 4 8 6650.12 6901.24 186.54 o
-4 5 8 19321.30 19568.40 315.94 o
-3 5 8 1625.19 1599.74 116.64 o
-2 5 8 1785.87 1915.09 116.83 o
-1 5 8 6779.24 7010.81 191.25 o
0 5 8 4278.91 4058.94 154.34 o
-5 6 8 258.98 253.70 102.70 <
-4 6 8 4108.52 3937.20 151.39 o
-3 6 8 49.24 23.17 86.01 <
-2 6 8 7033.61 6898.49 218.15 o
-1 6 8 4876.63 4840.25 177.31 o
0 6 8 755.99 766.98 114.08 o
-6 7 8 6353.98 6121.30 218.55 o
-5 7 8 388.08 479.51 107.80 o
-4 7 8 593.59 487.17 102.89 o
-3 7 8 571.18 531.35 115.85 o
-2 7 8 893.45 1046.59 125.47 o
-1 7 8 5930.56 5951.65 211.48 o
0 7 8 740.89 1108.84 135.49 o
-6 8 8 4642.13 4679.83 192.63 o
-5 8 8 13.65 38.29 102.89 <
-4 8 8 17756.50 18023.00 345.00 o
-3 8 8 2440.76 2664.59 168.87 o
-2 8 8 740.84 701.40 130.38 o
0 1 9 2.57 12.57 77.17 <
-1 2 9 3449.62 3444.34 150.21 o
0 2 9 410.91 243.68 96.61 <
-2 3 9 6990.58 7078.16 210.30 o
-1 3 9 11199.90 11314.40 250.75 o
0 3 9 21.52 -92.88 99.16 <
-3 4 9 25.29 86.01 98.38 <
-2 4 9 948.65 848.27 112.12 o
-1 4 9 12.66 51.64 101.52 <
0 4 9 73.98 -28.47 93.07 <
-4 5 9 151.08 -101.12 106.03 <
-3 5 9 2245.97 2020.54 136.27 o
-2 5 9 6169.13 6315.50 209.32 o
-1 5 9 662.59 459.09 107.61 o
0 5 9 172.68 271.37 114.08 <
-4 6 9 550.34 264.69 122.92 <
-3 6 9 5597.84 5812.43 217.57 o
-2 6 9 1078.70 911.70 127.44 o
0 0 10 11056.40 11178.50 572.78 o
0 1 10 2676.58 2609.22 157.68 o
-1 2 10 5551.88 5708.95 212.46 o
