#------------------------------------------------------------------------------
#$Date: 2021-04-06 11:55:48 +0300 (Tue, 06 Apr 2021) $
#$Revision: 263894 $
#$URL: file:///home/coder/svn-repositories/cod/cif/1/56/14/1561485.cif $
#------------------------------------------------------------------------------
#
# This file is available in the Crystallography Open Database (COD),
# http://www.crystallography.net/
#
# All data on this site have been placed in the public domain by the
# contributors.
#
data_1561485
loop_
_publ_author_name
'Koffi, Agbelenko'
'Ade, Martin'
'Hillebrecht, Harald'
_publ_section_title
;
 Single crystal studies of binary compounds Ta/Ga -- A system with
 experimental and crystallographic peculiarities
;
_journal_name_full               'Journal of Solid State Chemistry'
_journal_page_first              88
_journal_page_last               102
_journal_paper_doi               10.1016/j.jssc.2016.03.014
_journal_volume                  238
_journal_year                    2016
_chemical_formula_sum            'Ga3 O1.5 Ta5'
_chemical_formula_weight         1137.91
_space_group_crystal_system      hexagonal
_space_group_IT_number           193
_space_group_name_Hall           '-P 6c 2'
_space_group_name_H-M_alt        'P 63/m c m'
_atom_sites_solution_hydrogens   .
_cell_angle_alpha                90
_cell_angle_beta                 90
_cell_angle_gamma                120
_cell_formula_units_Z            2
_cell_length_a                   7.7023(4)
_cell_length_b                   7.7023(4)
_cell_length_c                   5.3062(3)
_cell_measurement_reflns_used    5434
_cell_measurement_temperature    293(2)
_cell_measurement_theta_max      30
_cell_measurement_theta_min      3.4
_cell_volume                     272.62(3)
_computing_cell_refinement       'Software for IPDS-II, Fa. Stoe'
_computing_data_collection       'Software for IPDS-II, Fa. Stoe'
_computing_data_reduction        'Software for IPDS-II, Fa. Stoe'
_computing_molecular_graphics    'Diamond (Crystal impact, 2005)'
_computing_publication_material  'SHELXL-97_(Sheldrick, 2008)'
_computing_structure_refinement  'SHELXL-2013 (Sheldrick, 2013)'
_computing_structure_solution    'SHELXS-97 (Sheldrick, 2008)'
_diffrn_ambient_temperature      293(2)
_diffrn_measured_fraction_theta_full 0.972
_diffrn_measured_fraction_theta_max 0.976
_diffrn_measurement_details
; 
0 degree < omega < 180 degree
psi = 0, 111
delta omega 2 degree
exposure time 240s 
;
_diffrn_measurement_device       '2-circle goniometer'
_diffrn_measurement_device_type  'STOE IPDS 2'
_diffrn_measurement_method       'rotation method'
_diffrn_radiation_collimation    '0.5 mm diameter, multiple pinhole'
_diffrn_radiation_monochromator  'plane graphite'
_diffrn_radiation_polarisn_norm  0
_diffrn_radiation_type           MoK\a
_diffrn_radiation_wavelength     0.71073
_diffrn_reflns_av_R_equivalents  0.077
_diffrn_reflns_av_unetI/netI     0.0155
_diffrn_reflns_Laue_measured_fraction_full 0.972
_diffrn_reflns_Laue_measured_fraction_max 0.976
_diffrn_reflns_limit_h_max       10
_diffrn_reflns_limit_h_min       -10
_diffrn_reflns_limit_k_max       10
_diffrn_reflns_limit_k_min       -10
_diffrn_reflns_limit_l_max       7
_diffrn_reflns_limit_l_min       -7
_diffrn_reflns_number            6223
_diffrn_reflns_point_group_measured_fraction_full 0.972
_diffrn_reflns_point_group_measured_fraction_max 0.976
_diffrn_reflns_theta_full        25.242
_diffrn_reflns_theta_max         29.964
_diffrn_reflns_theta_min         5.295
_diffrn_source
'sealed X-ray tube, 12 x 0.4 mm long-fine focus'
_diffrn_source_current           40
_diffrn_source_power             2.00
_diffrn_source_voltage           50
_exptl_absorpt_coefficient_mu    114.335
_exptl_absorpt_correction_T_max  0.290
_exptl_absorpt_correction_T_min  0.045
_exptl_absorpt_correction_type   numerical
_exptl_absorpt_process_details   'X-Red and X-SHAPE  (Stoe & Cie, 1999)'
_exptl_crystal_colour            metallic
_exptl_crystal_density_diffrn    13.862
_exptl_crystal_description       needle
_exptl_crystal_F_000             940
_exptl_crystal_size_max          0.2
_exptl_crystal_size_mid          0.03
_exptl_crystal_size_min          0.02
_refine_diff_density_max         1.410
_refine_diff_density_min         -0.927
_refine_diff_density_rms         0.227
_refine_ls_extinction_coef       0.00488(19)
_refine_ls_extinction_expression Fc^*^=kFc[1+0.001xFc^2^\l^3^/sin(2\q)]^-1/4^
_refine_ls_extinction_method     SHELXL
_refine_ls_goodness_of_fit_ref   0.959
_refine_ls_hydrogen_treatment    undef
_refine_ls_matrix_type           full
_refine_ls_number_parameters     14
_refine_ls_number_reflns         161
_refine_ls_number_restraints     0
_refine_ls_restrained_S_all      0.959
_refine_ls_R_factor_all          0.0147
_refine_ls_R_factor_gt           0.0102
_refine_ls_shift/su_max          0.000
_refine_ls_shift/su_mean         0.000
_refine_ls_structure_factor_coef Fsqd
_refine_ls_weighting_details
'w=1/[\s^2^(Fo^2^)+(0.0080P)^2^] where P=(Fo^2^+2Fc^2^)/3'
_refine_ls_weighting_scheme      calc
_refine_ls_wR_factor_gt          0.0167
_refine_ls_wR_factor_ref         0.0172
_reflns_Friedel_coverage         0.000
_reflns_Friedel_fraction_full    .
_reflns_Friedel_fraction_max     .
_reflns_number_gt                145
_reflns_number_total             161
_reflns_threshold_expression     'I > 2\s(I)'
_cod_data_source_file            Ta5Ga3-Mn5Si3_HH.cif
_cod_data_source_block           Ta5Ga3-Mn5Si3
_cod_original_formula_sum        'Ga3 O1.50 Ta5'
_cod_database_code               1561485
_shelx_space_group_comment
;
The symmetry employed for this shelxl refinement is uniquely defined
by the following loop, which should always be used as a source of
symmetry information in preference to the above space-group names.
They are only intended as comments.
;
_shelxl_version_number           2013-4
_shelx_res_file
;
TITL Ta5Ga3-h in P6(3)/mcm
CELL 0.71073   7.7023   7.7023   5.3062  90.000  90.000 120.000
ZERR    2.00   0.0004   0.0004   0.0003   0.000   0.000   0.000
LATT  1
SYMM -Y, X-Y, Z
SYMM -X+Y, -X, Z
SYMM -X, -Y, 0.5+Z
SYMM Y, -X+Y, 0.5+Z
SYMM X-Y, X, 0.5+Z
SYMM Y, X, 0.5-Z
SYMM X-Y, -Y, 0.5-Z
SYMM -X, -X+Y, 0.5-Z
SYMM -Y, -X, -Z
SYMM -X+Y, Y, -Z
SYMM X, X-Y, -Z
SFAC GA TA O
UNIT 6 10 3
OMIT 0 60
L.S. 4
BOND
FMAP 2
PLAN 20
OMIT 0 0 2
OMIT 0 0 4
OMIT -4 8 4
OMIT 0 0 8
ACTA
WGHT    0.008000
EXTI    0.004876
FVAR       0.07719
MOLE   1
TA2   2    0.758267    0.000000    0.250000    10.25000    0.00499    0.00424 =
         0.00621    0.00000    0.00000    0.00212
TA1   2    0.666667    0.333333    0.000000    10.16667    0.00555    0.00555 =
         0.00297    0.00000    0.00000    0.00278
GA    1    1.000000    0.399285    0.250000    10.25000    0.00490    0.00516 =
         0.00814    0.00000    0.00000    0.00245
O     3    1.000000    0.000000    0.000000     0.03115    0.00502
HKLF 4

REM  Ta5Ga3-h in P6(3)/mcm
REM R1 =  0.0102 for     145 Fo > 4sig(Fo)  and  0.0147 for all     161 data
REM     14 parameters refined using      0 restraints

END

WGHT      0.0081      0.0000

REM Highest difference peak  1.410,  deepest hole -0.927,  1-sigma level  0.227
Q1    1   1.0000  0.0000  0.2500  10.08333  0.05    1.41
Q2    1   0.8084  0.3603  0.2500  10.50000  0.05    0.74
Q3    1   1.0000  0.2721  0.1640  10.50000  0.05    0.52
Q4    1   0.9349  0.3006  0.0024  11.00000  0.05    0.51
Q5    1   1.1572  0.0786  0.0000  10.50000  0.05    0.50
Q6    1   0.6782  0.4382  0.1485  11.00000  0.05    0.50
Q7    1   0.7036  0.0000  0.1966  10.50000  0.05    0.50
Q8    1   1.0000  0.2120  0.2500  10.25000  0.05    0.48
Q9    1   1.0000  0.3934  0.0478  10.50000  0.05    0.48
Q10   1   0.8549  0.0000  0.1502  10.50000  0.05    0.45
Q11   1   0.8550  0.1450  0.0000  10.50000  0.05    0.40
Q12   1   0.7880  0.0772  0.0168  11.00000  0.05    0.38
Q13   1   0.8394  0.0728  0.1665  11.00000  0.05    0.37
Q14   1   0.6930  0.1705 -0.0079  11.00000  0.05    0.35
Q15   1   0.8676  0.2692  0.1632  11.00000  0.05    0.33
Q16   1   0.8916  0.4599  0.0822  11.00000  0.05    0.30
Q17   1   0.7741  0.1748  0.2500  10.50000  0.05    0.30
Q18   1   1.0000  0.5122  0.1565  10.50000  0.05    0.27
Q19   1   0.7992  0.1345  0.0979  11.00000  0.05    0.21
Q20   1   1.0883  0.0000  0.1074  10.50000  0.05    0.13
;
_shelx_res_checksum              47488
_shelx_hkl_file
;
  -1   2   0   39.23    3.76
   0   2   0  150.47    3.86
  -1   3   0  336.99    3.51
   0   3   0  690.90    3.75
  -2   4   0   59.27    2.07
  -1   4   0   25.55    2.18
   0   4   0  186.86    2.49
  -2   5   0   89.79    2.23
  -1   5   0  462.22    2.70
   0   5   0  149.19    2.16
  -3   6   0   25.06    1.89
  -2   6   0  272.23    2.31
  -1   6   0  149.07    1.88
   0   6   0   32.23    1.72
  -3   7   0   12.64    1.66
  -2   7   0   85.09    1.74
  -1   7   0  259.26    1.98
   0   7   0    0.34    1.42
  -4   8   0  577.03    2.45
  -3   8   0   15.24    1.49
  -2   8   0  132.51    1.64
  -1   8   0  181.20    1.73
   0   8   0  156.39    1.60
  -4   9   0    7.31    1.31
  -3   9   0   20.93    1.36
  -2   9   0   96.42    1.57
  -1   9   0    0.44    1.15
   0   9   0  268.70    1.85
  -5  10   0  150.29    1.61
  -4  10   0   84.54    1.47
  -3  10   0   67.52    1.52
  -2  10   0   49.83    1.41
  -1  10   0   43.14    1.30
   0  10   0    7.44    1.14
  -5  11   0   97.24    1.45
  -4  11   0   47.70    1.39
  -3  11   0   10.14    1.25
  -2  11   0   93.38    1.49
  -1  11   0    3.97    1.27
   0  11   0   15.67    1.45
  -6  12   0    2.72    1.12
  -5  12   0    1.35    1.16
  -4  12   0   38.35    1.24
  -3  12   0  105.89    1.51
  -2  12   0   24.95    1.39
  -1  12   0    8.37    1.34
  -6  13   0   27.95    1.34
  -5  13   0  151.36    1.83
  -4  13   0    2.96    1.32
   0   1   1    0.83    2.92
  -1   2   1   97.31    3.56
   0   2   1    2.65    2.90
  -1   3   1  459.96    3.60
   0   3   1    1.23    2.42
  -2   4   1   59.00    2.28
  -1   4   1   26.11    2.13
   0   4   1    2.03    1.95
  -2   5   1  187.89    2.37
  -1   5   1    2.76    1.89
   0   5   1    0.33    1.98
  -3   6   1  342.46    2.46
  -2   6   1    9.43    1.89
  -1   6   1  122.86    1.90
   0   6   1   -0.10    1.56
  -3   7   1   22.58    1.53
  -2   7   1  148.06    1.86
  -1   7   1   75.29    1.66
   0   7   1    0.73    1.44
  -4   8   1   18.16    1.52
  -3   8   1    5.16    1.49
  -2   8   1   49.94    1.57
  -1   8   1   25.30    1.43
   0   8   1    1.34    1.34
  -4   9   1    0.72    1.37
  -3   9   1  134.27    1.59
  -2   9   1   38.03    1.37
  -1   9   1   22.59    1.29
   0   9   1    1.09    1.18
  -5  10   1   46.64    1.43
  -4  10   1    4.46    1.28
  -3  10   1  119.12    1.50
  -2  10   1   12.60    1.29
  -1  10   1   35.16    1.24
   0  10   1    1.19    1.28
  -5  11   1   76.27    1.37
  -4  11   1    3.68    1.19
  -3  11   1   16.88    1.21
  -2  11   1   93.69    1.39
  -1  11   1   73.29    1.36
   0  11   1    0.40    1.22
  -6  12   1    3.99    1.19
  -5  12   1    5.82    1.28
  -4  12   1    3.35    1.21
  -3  12   1    0.69    1.23
  -2  12   1   14.04    1.36
  -6  13   1    8.19    1.40
  -5  13   1    0.98    1.34
   0   0   2  304.20    2.64
   0   1   2  241.54    2.56
  -1   2   2  685.69    3.24
   0   2   2   30.10    2.17
  -1   3   2    2.48    1.85
   0   3   2   31.67    2.12
  -2   4   2  517.17    2.94
  -1   4   2  105.44    2.25
   0   4   2  645.74    3.04
  -2   5   2   24.90    1.87
  -1   5   2   47.04    1.91
   0   5   2  537.69    2.83
  -3   6   2  435.48    2.43
  -2   6   2   10.23    1.62
  -1   6   2    0.83    1.62
   0   6   2  333.31    2.13
  -3   7   2   67.49    1.62
  -2   7   2  214.41    1.96
  -1   7   2   18.56    1.54
   0   7   2  100.26    1.61
  -4   8   2    6.39    1.41
  -3   8   2  187.91    1.79
  -2   8   2    1.62    1.33
  -1   8   2   56.42    1.44
   0   8   2  424.56    2.13
  -4   9   2  140.79    1.60
  -3   9   2  220.19    1.83
  -2   9   2    0.54    1.26
  -1   9   2   78.79    1.52
   0   9   2    2.77    1.23
  -5  10   2   35.72    1.33
  -4  10   2    1.69    1.29
  -3  10   2    1.53    1.20
  -2  10   2  102.45    1.45
  -1  10   2    3.80    1.28
   0  10   2   22.89    1.30
  -5  11   2    4.60    1.26
  -4  11   2   83.29    1.37
  -3  11   2   21.12    1.24
  -2  11   2    5.05    1.17
  -1  11   2  146.77    1.64
   0  11   2    5.48    1.36
  -6  12   2  150.85    1.65
  -5  12   2   56.33    1.38
  -4  12   2  147.47    1.55
  -3  12   2   10.12    1.28
  -2  12   2    2.00    1.36
  -6  13   2    0.94    1.28
   0   0   3    0.67    1.14
   0   1   3    0.37    1.47
  -1   2   3   69.77    1.81
   0   2   3    1.56    1.62
  -1   3   3  345.99    2.35
   0   3   3    0.50    1.82
  -2   4   3   42.23    1.90
  -1   4   3   17.27    1.66
   0   4   3    1.51    1.75
  -2   5   3  145.47    1.83
  -1   5   3    1.45    1.63
   0   5   3    0.92    1.60
  -3   6   3  268.26    1.88
  -2   6   3    5.58    1.47
  -1   6   3   97.74    1.70
   0   6   3    0.66    1.43
  -3   7   3   17.44    1.42
  -2   7   3  120.76    1.64
  -1   7   3   64.06    1.49
   0   7   3    1.32    1.43
  -4   8   3   13.71    1.28
  -3   8   3    3.92    1.29
  -2   8   3   38.81    1.40
  -1   8   3   19.50    1.34
   0   8   3    0.68    1.37
  -4   9   3    1.08    1.25
  -3   9   3  104.95    1.43
  -2   9   3   32.15    1.31
  -1   9   3   18.30    1.26
   0   9   3    0.74    1.27
  -5  10   3   39.13    1.29
  -4  10   3    3.86    1.24
  -3  10   3  101.47    1.41
  -2  10   3   10.37    1.21
  -1  10   3   29.39    1.24
   0  10   3    1.06    1.16
  -5  11   3   64.53    1.24
  -4  11   3    2.81    1.13
  -3  11   3   13.93    1.22
  -2  11   3   74.95    1.39
  -1  11   3   54.06    1.44
  -6  12   3    3.24    1.28
  -5  12   3    4.28    1.19
  -4  12   3    2.44    1.31
  -3  12   3    0.66    1.33
   0   0   4 1000.00    2.89
   0   1   4    1.40    1.44
  -1   2   4   23.90    1.45
   0   2   4   89.27    1.65
  -1   3   4  197.97    1.87
   0   3   4  439.39    2.36
  -2   4   4   38.59    1.59
  -1   4   4   13.94    1.46
   0   4   4  108.31    1.63
  -2   5   4   61.07    1.49
  -1   5   4  316.46    2.06
   0   5   4   78.69    1.46
  -3   6   4   17.83    1.34
  -2   6   4  172.28    1.64
  -1   6   4   98.66    1.56
   0   6   4   27.49    1.43
  -3   7   4    9.71    1.30
  -2   7   4   58.25    1.39
  -1   7   4  171.21    1.62
   0   7   4    3.30    1.37
  -4   8   4  402.00    2.01
  -3   8   4    7.60    1.25
  -2   8   4   91.72    1.47
  -1   8   4  131.08    1.54
   0   8   4  104.85    1.47
  -4   9   4    5.25    1.29
  -3   9   4   17.34    1.29
  -2   9   4   67.48    1.37
  -1   9   4    1.24    1.29
   0   9   4  197.75    1.58
  -5  10   4  104.18    1.45
  -4  10   4   61.64    1.40
  -3  10   4   49.45    1.38
  -2  10   4   35.89    1.32
  -1  10   4   28.96    1.31
   0  10   4    5.47    1.27
  -5  11   4   67.22    1.44
  -4  11   4   35.16    1.43
  -3  11   4    6.88    1.37
  -2  11   4   51.48    1.49
  -6  12   4    1.66    1.25
   0   0   5   -0.06    1.24
   0   1   5    0.40    1.25
  -1   2   5   45.33    1.37
   0   2   5    0.67    1.43
  -1   3   5  207.96    1.76
   0   3   5    0.48    1.47
  -2   4   5   23.63    1.42
  -1   4   5    9.27    1.39
   0   4   5    0.94    1.37
  -2   5   5   93.05    1.54
  -1   5   5    1.67    1.28
   0   5   5    0.28    1.30
  -3   6   5  175.16    1.73
  -2   6   5    3.64    1.27
  -1   6   5   64.50    1.50
   0   6   5    1.81    1.35
  -3   7   5   11.09    1.26
  -2   7   5   82.80    1.48
  -1   7   5   46.81    1.30
   0   7   5    0.78    1.33
  -4   8   5    8.35    1.30
  -3   8   5    3.02    1.31
  -2   8   5   26.53    1.32
  -1   8   5   13.77    1.24
   0   8   5    1.47    1.38
  -4   9   5    0.32    1.27
  -3   9   5   72.88    1.43
  -2   9   5   23.18    1.28
  -1   9   5   11.55    1.28
   0   9   5    0.87    1.28
  -5  10   5   25.65    1.46
  -4  10   5    2.75    1.34
  -3  10   5   65.58    1.49
  -2  10   5    6.92    1.32
  -1  10   5   13.99    1.44
  -5  11   5   31.11    1.58
  -4  11   5    1.53    1.41
   0   0   6   86.54    1.54
   0   1   6   98.27    1.53
  -1   2   6  296.75    1.94
   0   2   6   10.37    1.39
  -1   3   6    1.71    1.32
   0   3   6   21.49    1.29
  -2   4   6  233.14    1.82
  -1   4   6   51.41    1.49
   0   4   6  297.09    1.88
  -2   5   6   10.23    1.31
  -1   5   6   24.40    1.48
   0   5   6  236.48    1.73
  -3   6   6  214.10    1.86
  -2   6   6    3.43    1.32
  -1   6   6    2.23    1.28
   0   6   6  176.43    1.79
  -3   7   6   35.78    1.45
  -2   7   6  121.82    1.58
  -1   7   6    7.01    1.35
   0   7   6   48.28    1.41
  -4   8   6    2.47    1.34
  -3   8   6   90.86    1.57
  -2   8   6    0.52    1.22
  -1   8   6   32.85    1.48
   0   8   6  193.15    1.80
  -4   9   6   69.29    1.54
  -3   9   6  105.13    1.65
  -2   9   6    0.56    1.34
  -1   9   6   30.92    1.49
  -5  10   6   13.74    1.52
  -4  10   6    0.58    1.53
   0   0   7    1.85    1.21
   0   1   7    0.66    1.32
  -1   2   7   28.81    1.45
   0   2   7    0.92    1.33
  -1   3   7  108.12    1.62
   0   3   7    1.14    1.28
  -2   4   7   12.54    1.42
  -1   4   7    4.36    1.33
   0   4   7    1.42    1.33
  -2   5   7   52.62    1.47
  -1   5   7    0.88    1.35
   0   5   7    0.09    1.29
  -3   6   7   97.22    1.70
  -2   6   7    1.65    1.41
  -1   6   7   36.00    1.37
   0   6   7    1.71    1.46
  -3   7   7    5.91    1.52
  -2   7   7   46.01    1.65
  -1   7   7   26.90    1.65
   0   7   7    0.51    1.59
  -4   8   7    4.18    1.44
  -3   8   7    2.17    1.63
  -2   8   7   11.00    1.61
   0   0   8  474.16    2.47
   0   1   8    1.79    1.55
  -1   2   8   15.23    1.53
   0   2   8   35.26    1.66
  -1   3   8   64.50    1.80
   0   3   8  140.83    1.82
  -2   4   8   16.85    1.54
  -1   4   8    4.65    1.49
   0   4   8   28.41    1.70
  -2   5   8   22.52    1.66
  -1   5   8   97.30    1.83
   0   5   8   13.75    1.59
  -3   6   8    7.23    1.59
  -2   6   8   40.93    1.82
  -1   6   8   22.59    1.76
   0   0   9   -0.14    2.08
   0   1   9    0.59    1.98
  -1   2   9    9.22    1.95
   0   2   9    0.44    1.96
   0   0   0    0.00    0.00
;
_shelx_hkl_checksum              25324
loop_
_space_group_symop_operation_xyz
'x, y, z'
'-y, x-y, z'
'-x+y, -x, z'
'-x, -y, z+1/2'
'y, -x+y, z+1/2'
'x-y, x, z+1/2'
'y, x, -z+1/2'
'x-y, -y, -z+1/2'
'-x, -x+y, -z+1/2'
'-y, -x, -z'
'-x+y, y, -z'
'x, x-y, -z'
'-x, -y, -z'
'y, -x+y, -z'
'x-y, x, -z'
'x, y, -z-1/2'
'-y, x-y, -z-1/2'
'-x+y, -x, -z-1/2'
'-y, -x, z-1/2'
'-x+y, y, z-1/2'
'x, x-y, z-1/2'
'y, x, z'
'x-y, -y, z'
'-x, -x+y, z'
loop_
_atom_site_label
_atom_site_type_symbol
_atom_site_fract_x
_atom_site_fract_y
_atom_site_fract_z
_atom_site_U_iso_or_equiv
_atom_site_adp_type
_atom_site_occupancy
_atom_site_site_symmetry_order
_atom_site_calc_flag
_atom_site_refinement_flags_posn
_atom_site_refinement_flags_adp
_atom_site_refinement_flags_occupancy
_atom_site_disorder_assembly
_atom_site_disorder_group
Ta2 Ta 0.75827(5) 0.0000 0.2500 0.00523(11) Uani 1 4 d S T P . .
Ta1 Ta 0.6667 0.3333 0.0000 0.00469(11) Uani 1 6 d S T P . .
Ga Ga 1.0000 0.39929(13) 0.2500 0.00610(18) Uani 1 4 d S T P . .
O O 1.0000 0.0000 0.0000 0.005(9) Uiso 0.37(6) 12 d S . . . .
loop_
_atom_site_aniso_label
_atom_site_aniso_U_11
_atom_site_aniso_U_22
_atom_site_aniso_U_33
_atom_site_aniso_U_23
_atom_site_aniso_U_13
_atom_site_aniso_U_12
Ta2 0.00499(14) 0.00424(17) 0.00621(15) 0.000 0.000 0.00212(8)
Ta1 0.00555(13) 0.00555(13) 0.00297(16) 0.000 0.000 0.00278(6)
Ga 0.0049(4) 0.0052(3) 0.0081(4) 0.000 0.000 0.0025(2)
loop_
_atom_type_symbol
_atom_type_description
_atom_type_scat_dispersion_real
_atom_type_scat_dispersion_imag
_atom_type_scat_source
Ga Ga 0.2307 1.6083 'International Tables Vol C Tables 4.2.6.8 and 6.1.1.4'
Ta Ta -0.7052 6.5227 'International Tables Vol C Tables 4.2.6.8 and 6.1.1.4'
O O 0.0106 0.0060 'International Tables Vol C Tables 4.2.6.8 and 6.1.1.4'
loop_
_geom_angle_atom_site_label_1
_geom_angle_atom_site_label_2
_geom_angle_atom_site_label_3
_geom_angle
_geom_angle_site_symmetry_1
_geom_angle_site_symmetry_3
O Ta2 O 70.938(11) 4_755 .
O Ta2 Ga 84.353(12) 4_755 2_645
O Ta2 Ga 84.353(12) . 2_645
O Ta2 Ga 84.353(12) 4_755 .
O Ta2 Ga 84.353(12) . .
Ga Ta2 Ga 166.12(3) 2_645 .
O Ta2 Ga 144.531(6) 4_755 3_665
O Ta2 Ga 144.531(6) . 3_665
Ga Ta2 Ga 96.940(14) 2_645 3_665
Ga Ta2 Ga 96.940(14) . 3_665
O Ta2 Ga 150.05(2) 4_755 15_545
O Ta2 Ga 79.110(18) . 15_545
Ga Ta2 Ga 92.881(4) 2_645 15_545
Ga Ta2 Ga 92.881(4) . 15_545
Ga Ta2 Ga 65.421(19) 3_665 15_545
O Ta2 Ga 79.110(18) 4_755 15_546
O Ta2 Ga 150.05(2) . 15_546
Ga Ta2 Ga 92.881(4) 2_645 15_546
Ga Ta2 Ga 92.881(4) . 15_546
Ga Ta2 Ga 65.421(19) 3_665 15_546
Ga Ta2 Ga 130.84(4) 15_545 15_546
O Ta2 Ta2 45.145(4) 4_755 3_765
O Ta2 Ta2 45.145(4) . 3_765
Ga Ta2 Ta2 113.060(14) 2_645 3_765
Ga Ta2 Ta2 53.060(14) . 3_765
Ga Ta2 Ta2 150.0 3_665 3_765
Ga Ta2 Ta2 111.114(16) 15_545 3_765
Ga Ta2 Ta2 111.114(16) 15_546 3_765
O Ta2 Ta2 45.145(4) 4_755 2_645
O Ta2 Ta2 45.145(4) . 2_645
Ga Ta2 Ta2 53.060(14) 2_645 2_645
Ga Ta2 Ta2 113.060(14) . 2_645
Ga Ta2 Ta2 150.0 3_665 2_645
Ga Ta2 Ta2 111.114(16) 15_545 2_645
Ga Ta2 Ta2 111.114(16) 15_546 2_645
Ta2 Ta2 Ta2 60.0 3_765 2_645
O Ta2 Ta2 44.855(4) 4_755 14_666
O Ta2 Ta2 103.948(9) . 14_666
Ga Ta2 Ta2 117.331(6) 2_645 14_666
Ga Ta2 Ta2 58.093(7) . 14_666
Ga Ta2 Ta2 106.692(2) 3_665 14_666
Ga Ta2 Ta2 149.751(4) 15_545 14_666
Ga Ta2 Ta2 51.325(14) 15_546 14_666
Ta2 Ta2 Ta2 60.167(5) 3_765 14_666
Ta2 Ta2 Ta2 90.0 2_645 14_666
O Ta2 Ta2 103.948(9) 4_755 15_545
O Ta2 Ta2 44.855(4) . 15_545
Ga Ta2 Ta2 58.093(7) 2_645 15_545
Ga Ta2 Ta2 117.331(5) . 15_545
Ga Ta2 Ta2 106.692(2) 3_665 15_545
Ga Ta2 Ta2 51.325(14) 15_545 15_545
Ga Ta2 Ta2 149.751(5) 15_546 15_545
Ta2 Ta2 Ta2 90.0 3_765 15_545
Ta2 Ta2 Ta2 60.167(5) 2_645 15_545
Ta2 Ta2 Ta2 146.616(5) 14_666 15_545
O Ta2 Ta2 44.855(4) 4_755 15_546
O Ta2 Ta2 103.948(9) . 15_546
Ga Ta2 Ta2 58.093(7) 2_645 15_546
Ga Ta2 Ta2 117.331(5) . 15_546
Ga Ta2 Ta2 106.692(2) 3_665 15_546
Ga Ta2 Ta2 149.751(4) 15_545 15_546
Ga Ta2 Ta2 51.325(14) 15_546 15_546
Ta2 Ta2 Ta2 90.0 3_765 15_546
Ta2 Ta2 Ta2 60.167(5) 2_645 15_546
Ta2 Ta2 Ta2 59.666(9) 14_666 15_546
Ta2 Ta2 Ta2 109.879(11) 15_545 15_546
Ta1 Ta1 Ta1 180.0 16_556 16
Ta1 Ta1 Ga 60.607(4) 16_556 .
Ta1 Ta1 Ga 119.394(4) 16 .
Ta1 Ta1 Ga 119.394(4) 16_556 15_545
Ta1 Ta1 Ga 60.607(4) 16 15_545
Ga Ta1 Ga 97.42(4) . 15_545
Ta1 Ta1 Ga 60.607(4) 16_556 3_665
Ta1 Ta1 Ga 119.393(4) 16 3_665
Ga Ta1 Ga 97.971(5) . 3_665
Ga Ta1 Ga 69.300(18) 15_545 3_665
Ta1 Ta1 Ga 119.393(4) 16_556 13_765
Ta1 Ta1 Ga 60.607(4) 16 13_765
Ga Ta1 Ga 69.300(18) . 13_765
Ga Ta1 Ga 97.971(5) 15_545 13_765
Ga Ta1 Ga 161.27(4) 3_665 13_765
Ta1 Ta1 Ga 119.392(4) 16_556 14_565
Ta1 Ta1 Ga 60.606(4) 16 14_565
Ga Ta1 Ga 161.27(4) . 14_565
Ga Ta1 Ga 97.971(5) 15_545 14_565
Ga Ta1 Ga 97.42(4) 3_665 14_565
Ga Ta1 Ga 97.971(5) 13_765 14_565
Ta1 Ta1 Ga 60.606(4) 16_556 2_655
Ta1 Ta1 Ga 119.392(4) 16 2_655
Ga Ta1 Ga 97.971(5) . 2_655
Ga Ta1 Ga 161.27(4) 15_545 2_655
Ga Ta1 Ga 97.971(5) 3_665 2_655
Ga Ta1 Ga 97.42(4) 13_765 2_655
Ga Ta1 Ga 69.300(18) 14_565 2_655
Ta1 Ta1 Ta2 66.029(2) 16_556 .
Ta1 Ta1 Ta2 113.973(2) 16 .
Ga Ta1 Ta2 52.41(2) . .
Ga Ta1 Ta2 57.611(12) 15_545 .
Ga Ta1 Ta2 54.21(2) 3_665 .
Ga Ta1 Ta2 107.587(18) 13_765 .
Ga Ta1 Ta2 146.28(2) 14_565 .
Ga Ta1 Ta2 126.625(5) 2_655 .
Ta1 Ta1 Ta2 113.972(2) 16_556 14_665
Ta1 Ta1 Ta2 66.029(2) 16 14_665
Ga Ta1 Ta2 57.611(12) . 14_665
Ga Ta1 Ta2 52.41(2) 15_545 14_665
Ga Ta1 Ta2 107.587(18) 3_665 14_665
Ga Ta1 Ta2 54.21(2) 13_765 14_665
Ga Ta1 Ta2 126.626(5) 14_565 14_665
Ga Ta1 Ta2 146.28(2) 2_655 14_665
Ta2 Ta1 Ta2 59.517(9) . 14_665
Ta1 Ta1 Ta2 66.028(2) 16_556 2_655
Ta1 Ta1 Ta2 113.971(2) 16 2_655
Ga Ta1 Ta2 54.21(2) . 2_655
Ga Ta1 Ta2 146.28(2) 15_545 2_655
Ga Ta1 Ta2 126.626(5) 3_665 2_655
Ga Ta1 Ta2 57.611(12) 13_765 2_655
Ga Ta1 Ta2 107.587(18) 14_565 2_655
Ga Ta1 Ta2 52.41(2) 2_655 2_655
Ta2 Ta1 Ta2 104.620(3) . 2_655
Ta2 Ta1 Ta2 94.159(7) 14_665 2_655
Ta1 Ta1 Ta2 113.971(2) 16_556 13_655
Ta1 Ta1 Ta2 66.028(2) 16 13_655
Ga Ta1 Ta2 146.28(2) . 13_655
Ga Ta1 Ta2 54.21(2) 15_545 13_655
Ga Ta1 Ta2 57.611(12) 3_665 13_655
Ga Ta1 Ta2 126.626(5) 13_765 13_655
Ga Ta1 Ta2 52.41(2) 14_565 13_655
Ga Ta1 Ta2 107.587(18) 2_655 13_655
Ta2 Ta1 Ta2 94.159(7) . 13_655
Ta2 Ta1 Ta2 104.620(3) 14_665 13_655
Ta2 Ta1 Ta2 158.428(10) 2_655 13_655
Ta2 Ga Ta2 73.88(3) 3_765 .
Ta2 Ga Ta1 136.37(3) 3_765 .
Ta2 Ga Ta1 74.633(11) . .
Ta2 Ga Ta1 74.633(11) 3_765 4_765
Ta2 Ga Ta1 136.37(3) . 4_765
Ta1 Ga Ta1 146.64(4) . 4_765
Ta2 Ga Ta1 74.633(11) 3_765 13_765
Ta2 Ga Ta1 136.37(3) . 13_765
Ta1 Ga Ta1 110.701(18) . 13_765
Ta1 Ga Ta1 58.786(8) 4_765 13_765
Ta2 Ga Ta1 136.37(3) 3_765 16_556
Ta2 Ga Ta1 74.634(11) . 16_556
Ta1 Ga Ta1 58.786(8) . 16_556
Ta1 Ga Ta1 110.701(18) 4_765 16_556
Ta1 Ga Ta1 146.64(4) 13_765 16_556
Ta2 Ga Ta2 143.061(14) 3_765 2_655
Ta2 Ga Ta2 143.060(14) . 2_655
Ta1 Ga Ta2 73.32(2) . 2_655
Ta1 Ga Ta2 73.32(2) 4_765 2_655
Ta1 Ga Ta2 73.32(2) 13_765 2_655
Ta1 Ga Ta2 73.32(2) 16_556 2_655
Ta2 Ga Ta2 70.582(18) 3_765 14_665
Ta2 Ga Ta2 70.582(18) . 14_665
Ta1 Ga Ta2 70.917(5) . 14_665
Ta1 Ga Ta2 124.451(6) 4_765 14_665
Ta1 Ga Ta2 70.916(5) 13_765 14_665
Ta1 Ga Ta2 124.452(6) 16_556 14_665
Ta2 Ga Ta2 114.580(19) 2_655 14_665
Ta2 Ga Ta2 70.582(18) 3_765 14_666
Ta2 Ga Ta2 70.582(18) . 14_666
Ta1 Ga Ta2 124.452(6) . 14_666
Ta1 Ga Ta2 70.916(5) 4_765 14_666
Ta1 Ga Ta2 124.451(6) 13_765 14_666
Ta1 Ga Ta2 70.917(5) 16_556 14_666
Ta2 Ga Ta2 114.580(19) 2_655 14_666
Ta2 Ga Ta2 130.84(4) 14_665 14_666
Ta2 O Ta2 180.0 15_545 3_765
Ta2 O Ta2 89.710(8) 15_545 13_755
Ta2 O Ta2 90.290(8) 3_765 13_755
Ta2 O Ta2 90.290(8) 15_545 2_645
Ta2 O Ta2 89.710(8) 3_765 2_645
Ta2 O Ta2 90.290(8) 13_755 2_645
Ta2 O Ta2 89.710(8) 15_545 14_665
Ta2 O Ta2 90.290(8) 3_765 14_665
Ta2 O Ta2 89.710(8) 13_755 14_665
Ta2 O Ta2 180.000(10) 2_645 14_665
Ta2 O Ta2 90.290(8) 15_545 .
Ta2 O Ta2 89.710(8) 3_765 .
Ta2 O Ta2 180.0 13_755 .
Ta2 O Ta2 89.710(8) 2_645 .
Ta2 O Ta2 90.290(8) 14_665 .
loop_
_geom_bond_atom_site_label_1
_geom_bond_atom_site_label_2
_geom_bond_distance
_geom_bond_site_symmetry_2
Ta2 O 2.2861(3) 4_755
Ta2 O 2.2861(3) .
Ta2 Ga 2.6830(8) 2_645
Ta2 Ga 2.6830(8) .
Ta2 Ga 2.7650(11) 3_665
Ta2 Ga 2.9175(5) 15_545
Ta2 Ga 2.9175(5) 15_546
Ta2 Ta2 3.2249(6) 3_765
Ta2 Ta2 3.2249(6) 2_645
Ta2 Ta2 3.2412(2) 14_666
Ta2 Ta2 3.2412(2) 15_545
Ta2 Ta2 3.2412(2) 15_546
Ta1 Ta1 2.65310(15) 16_556
Ta1 Ta1 2.65310(15) 16
Ta1 Ga 2.7028(3) .
Ta1 Ga 2.7028(3) 15_545
Ta1 Ga 2.7028(3) 3_665
Ta1 Ga 2.7028(3) 13_765
Ta1 Ga 2.7028(3) 14_565
Ta1 Ga 2.7028(3) 2_655
Ta1 Ta2 3.2651(3) 14_665
Ta1 Ta2 3.2651(3) 2_655
Ta1 Ta2 3.2651(3) 13_655
Ga Ta2 2.6830(8) 3_765
Ga Ta1 2.7028(3) 4_765
Ga Ta1 2.7028(3) 13_765
Ga Ta1 2.7029(3) 16_556
Ga Ta2 2.7650(11) 2_655
Ga Ta2 2.9175(5) 14_665
Ga Ta2 2.9175(5) 14_666
O Ta2 2.2861(3) 15_545
O Ta2 2.2861(3) 3_765
O Ta2 2.2861(3) 13_755
O Ta2 2.2861(3) 2_645
O Ta2 2.2861(3) 14_665
