#------------------------------------------------------------------------------
#$Date: 2021-03-23 10:18:35 +0200 (Tue, 23 Mar 2021) $
#$Revision: 263238 $
#$URL: file:///home/coder/svn-repositories/cod/cif/1/56/11/1561192.cif $
#------------------------------------------------------------------------------
#
# This file is available in the Crystallography Open Database (COD),
# http://www.crystallography.net/
#
# All data on this site have been placed in the public domain by the
# contributors.
#
data_1561192
loop_
_publ_author_name
'Colmont, Marie'
'Mentr\'e, Olivier'
'Henry, Natacha'
'Pautrat, Alain'
'Leclercq, Bastien'
'Capet, Fr\'ed\'eric'
'Djelal, Nora'
'Roussel, Pascal'
_publ_section_title
;
 Undulated oxo-centered layers in PbLn3O4(VO4) (Ln= La and Nd) and
 relationship with Nd4O4(GeO4)
;
_journal_name_full               'Journal of Solid State Chemistry'
_journal_page_first              101
_journal_page_last               105
_journal_paper_doi               10.1016/j.jssc.2018.01.016
_journal_volume                  260
_journal_year                    2018
_chemical_absolute_configuration .
_chemical_formula_sum            'La3 O8 Pb V'
_chemical_formula_weight         802.8
_space_group_IT_number           63
_space_group_name_Hall           '-C 2c 2'
_space_group_name_H-M_alt        'C m c m'
_symmetry_cell_setting           orthorhombic
_symmetry_Int_Tables_number      63
_symmetry_space_group_name_Hall  '-C 2c 2'
_symmetry_space_group_name_H-M   'C m c m'
_cell_angle_alpha                90
_cell_angle_beta                 90
_cell_angle_gamma                90
_cell_formula_units_Z            4
_cell_length_a                   5.8858(4)
_cell_length_b                   17.9380(12)
_cell_length_c                   7.9079(5)
_cell_measurement_reflns_used    9914
_cell_measurement_temperature    293
_cell_measurement_theta_max      40.155
_cell_measurement_theta_min      2.270
_cell_volume                     834.91(10)
_diffrn_ambient_temperature      293
_diffrn_measured_fraction_theta_full 0.98
_diffrn_measured_fraction_theta_max 0.97
_diffrn_measurement_device       'four-circle diffractometer'
_diffrn_measurement_device_type  'Bruker CCD'
_diffrn_radiation_monochromator  graphite
_diffrn_radiation_probe          x-ray
_diffrn_radiation_source         'X-ray tube'
_diffrn_radiation_type           'Mo K\a'
_diffrn_radiation_wavelength     0.71073
_diffrn_reflns_av_R_equivalents  0.0336
_diffrn_reflns_av_unetI/netI     0.0173
_diffrn_reflns_limit_h_max       10
_diffrn_reflns_limit_h_min       -9
_diffrn_reflns_limit_k_max       32
_diffrn_reflns_limit_k_min       -32
_diffrn_reflns_limit_l_max       12
_diffrn_reflns_limit_l_min       -13
_diffrn_reflns_number            22722
_diffrn_reflns_theta_full        39.08
_diffrn_reflns_theta_max         40.24
_diffrn_reflns_theta_min         2.27
_exptl_absorpt_coefficient_mu    36.2
_exptl_absorpt_correction_T_max  0.7485
_exptl_absorpt_correction_T_min  0.4725
_exptl_absorpt_correction_type   multi-scan
_exptl_absorpt_process_details
;
SADABS-2012/1 (Bruker,2012)
;
_exptl_crystal_colour            orange
_exptl_crystal_density_diffrn    6.387
_exptl_crystal_description       block
_exptl_crystal_F_000             1360
_exptl_crystal_size_max          0.072
_exptl_crystal_size_mid          0.047
_exptl_crystal_size_min          0.023
_refine_diff_density_max         2.25
_refine_diff_density_min         -1.70
_refine_ls_extinction_method     none
_refine_ls_goodness_of_fit_gt    1.53
_refine_ls_goodness_of_fit_ref   1.48
_refine_ls_number_constraints    0
_refine_ls_number_parameters     42
_refine_ls_number_reflns         1430
_refine_ls_number_restraints     0
_refine_ls_R_factor_all          0.0222
_refine_ls_R_factor_gt           0.0192
_refine_ls_shift/su_max          0.0159
_refine_ls_shift/su_mean         0.0036
_refine_ls_structure_factor_coef F
_refine_ls_weighting_details     w=1/(\s^2^(F)+0.0001F^2^)
_refine_ls_weighting_scheme      sigma
_refine_ls_wR_factor_gt          0.0248
_refine_ls_wR_factor_ref         0.0252
_reflns_number_gt                1306
_reflns_number_total             1430
_reflns_threshold_expression     I>3\s(I)
_cod_data_source_file            JSSC-2018-260-101.cif
_cod_data_source_block           I
_cod_depositor_comments
;
The following automatic conversions were performed:

data item '_diffrn_radiation_probe' value 'X-ray' was changed to
'x-ray' in accordance with the built-in table derived from the CIF
Core dictionary named 'cif_core.dic' version 2.4.5 last updated on
2014-11-21.

Automatic conversion script
Id: cif_fix_values 8369 2020-08-20 11:38:08Z andrius 
;
_cod_original_sg_symbol_Hall     '-C -2x;-2yc;-2zc'
_cod_original_formula_sum        'La3 O8 Pb1 V1'
_cod_database_code               1561192
loop_
_space_group_symop_id
_space_group_symop_operation_xyz
1 x,y,z
2 -x,-y,z+1/2
3 -x,y,-z+1/2
4 x,-y,-z
5 -x,-y,-z
6 x,y,-z+1/2
7 x,-y,z+1/2
8 -x,y,z
9 x+1/2,y+1/2,z
10 -x+1/2,-y+1/2,z+1/2
11 -x+1/2,y+1/2,-z+1/2
12 x+1/2,-y+1/2,-z
13 -x+1/2,-y+1/2,-z
14 x+1/2,y+1/2,-z+1/2
15 x+1/2,-y+1/2,z+1/2
16 -x+1/2,y+1/2,z
loop_
_atom_site_label
_atom_site_type_symbol
_atom_site_fract_x
_atom_site_fract_y
_atom_site_fract_z
_atom_site_adp_type
_atom_site_U_iso_or_equiv
_atom_site_site_symmetry_multiplicity
_atom_site_occupancy
_atom_site_calc_flag
_atom_site_refinement_flags
_atom_site_disorder_assembly
_atom_site_disorder_group
Pb1 Pb 0 0.289891(9) 0.25 Uani 0.00795(5) 4 1 d . . .
La1 La 0 0.493254(14) 0.25 Uani 0.00544(6) 4 1 d . . .
La2 La 0.5 0.394965(10) 0.01071(2) Uani 0.00559(5) 8 1 d . . .
V1 V 1 0.31254(4) -0.25 Uani 0.00601(17) 4 1 d . . .
O1 O 1 0.25839(14) -0.0748(3) Uani 0.0157(7) 8 1 d . . .
O2 O 0.7430(4) 0.5 0 Uani 0.0081(6) 8 1 d . . .
O3 O 0.2474(4) 0.38116(13) 0.25 Uani 0.0075(6) 8 1 d . . .
O4 O 0.7639(4) 0.37248(14) -0.25 Uani 0.0114(6) 8 1 d . . .
loop_
_atom_site_aniso_label
_atom_site_aniso_type_symbol
_atom_site_aniso_U_11
_atom_site_aniso_U_22
_atom_site_aniso_U_33
_atom_site_aniso_U_12
_atom_site_aniso_U_13
_atom_site_aniso_U_23
Pb1 Pb 0.00744(8) 0.00617(8) 0.01024(9) 0 0 0
La1 La 0.00442(11) 0.00611(10) 0.00580(12) 0 0 0
La2 La 0.00462(9) 0.00696(9) 0.00520(9) 0 0 -0.00019(5)
V1 V 0.0057(3) 0.0061(3) 0.0062(3) 0 0 0
O1 O 0.0200(12) 0.0147(12) 0.0125(14) 0 0 0.0034(9)
O2 O 0.0068(10) 0.0104(11) 0.0072(11) 0 0 0.0013(7)
O3 O 0.0058(9) 0.0093(9) 0.0074(10) -0.0003(8) 0 0
O4 O 0.0090(10) 0.0130(10) 0.0123(12) 0.0025(9) 0 0
loop_
_atom_type_symbol
_atom_type_scat_dispersion_real
_atom_type_scat_dispersion_imag
_atom_type_scat_source
La -0.2871 2.4523 'International Tables Vol C tables 4.2.6.8 and 6.1.1.1'
O 0.0106 0.0060 'International Tables Vol C tables 4.2.6.8 and 6.1.1.1'
Pb -3.3944 10.1111 'International Tables Vol C tables 4.2.6.8 and 6.1.1.1'
V 0.3005 0.5294 'International Tables Vol C tables 4.2.6.8 and 6.1.1.1'
loop_
_geom_angle_atom_site_label_1
_geom_angle_atom_site_label_2
_geom_angle_atom_site_label_3
_geom_angle_site_symmetry_1
_geom_angle_site_symmetry_2
_geom_angle_site_symmetry_3
_geom_angle
La1 Pb1 La2 . . 1_455 61.688(4)
La1 Pb1 La2 . . . 61.688(4)
La1 Pb1 La2 . . 10_555 148.129(4)
La1 Pb1 La2 . . 3_555 61.688(4)
La1 Pb1 La2 . . 3_655 61.688(4)
La1 Pb1 La2 . . 12_455 148.129(4)
La1 Pb1 V1 . . 10_555 121.979(12)
La1 Pb1 V1 . . 10_655 121.979(12)
La1 Pb1 O1 . . 1_455 102.41(6)
La1 Pb1 O1 . . 3_655 102.41(6)
La1 Pb1 O3 . . . 41.65(6)
La1 Pb1 O3 . . 3_555 41.65(6)
La2 Pb1 La2 1_455 . . 95.550(6)
La2 Pb1 La2 1_455 . 10_555 130.857(4)
La2 Pb1 La2 1_455 . 3_555 56.868(5)
La2 Pb1 La2 1_455 . 3_655 123.377(7)
La2 Pb1 La2 1_455 . 12_455 98.706(5)
La2 Pb1 V1 1_455 . 10_555 67.855(11)
La2 Pb1 V1 1_455 . 10_655 151.559(3)
La2 Pb1 O1 1_455 . 1_455 68.71(3)
La2 Pb1 O1 1_455 . 3_655 124.54(2)
La2 Pb1 O3 1_455 . . 97.92(5)
La2 Pb1 O3 1_455 . 3_555 32.17(3)
La2 Pb1 La2 . . 10_555 130.857(4)
La2 Pb1 La2 . . 3_555 123.377(7)
La2 Pb1 La2 . . 3_655 56.868(5)
La2 Pb1 La2 . . 12_455 98.706(5)
La2 Pb1 V1 . . 10_555 151.559(3)
La2 Pb1 V1 . . 10_655 67.855(11)
La2 Pb1 O1 . . 1_455 68.71(3)
La2 Pb1 O1 . . 3_655 124.54(2)
La2 Pb1 O3 . . . 32.17(3)
La2 Pb1 O3 . . 3_555 97.92(5)
La2 Pb1 La2 10_555 . 3_555 98.706(5)
La2 Pb1 La2 10_555 . 3_655 98.706(5)
La2 Pb1 La2 10_555 . 12_455 63.742(7)
La2 Pb1 V1 10_555 . 10_555 63.271(10)
La2 Pb1 V1 10_555 . 10_655 63.271(10)
La2 Pb1 O1 10_555 . 1_455 109.46(6)
La2 Pb1 O1 10_555 . 3_655 45.72(6)
La2 Pb1 O3 10_555 . . 129.39(4)
La2 Pb1 O3 10_555 . 3_555 129.39(4)
La2 Pb1 La2 3_555 . 3_655 95.550(6)
La2 Pb1 La2 3_555 . 12_455 130.857(4)
La2 Pb1 V1 3_555 . 10_555 67.855(11)
La2 Pb1 V1 3_555 . 10_655 151.559(3)
La2 Pb1 O1 3_555 . 1_455 124.54(2)
La2 Pb1 O1 3_555 . 3_655 68.71(3)
La2 Pb1 O3 3_555 . . 97.92(5)
La2 Pb1 O3 3_555 . 3_555 32.17(3)
La2 Pb1 La2 3_655 . 12_455 130.857(4)
La2 Pb1 V1 3_655 . 10_555 151.559(3)
La2 Pb1 V1 3_655 . 10_655 67.855(11)
La2 Pb1 O1 3_655 . 1_455 124.54(2)
La2 Pb1 O1 3_655 . 3_655 68.71(3)
La2 Pb1 O3 3_655 . . 32.17(3)
La2 Pb1 O3 3_655 . 3_555 97.92(5)
La2 Pb1 V1 12_455 . 10_555 63.271(10)
La2 Pb1 V1 12_455 . 10_655 63.271(10)
La2 Pb1 O1 12_455 . 1_455 45.72(6)
La2 Pb1 O1 12_455 . 3_655 109.46(6)
La2 Pb1 O3 12_455 . . 129.39(4)
La2 Pb1 O3 12_455 . 3_555 129.39(4)
V1 Pb1 V1 10_555 . 10_655 116.042(17)
V1 Pb1 O1 10_555 . 1_455 83.47(3)
V1 Pb1 O1 10_555 . 3_655 83.47(3)
V1 Pb1 O3 10_555 . . 163.63(6)
V1 Pb1 O3 10_555 . 3_555 80.33(6)
V1 Pb1 O1 10_655 . 1_455 83.47(3)
V1 Pb1 O1 10_655 . 3_655 83.47(3)
V1 Pb1 O3 10_655 . . 80.33(6)
V1 Pb1 O3 10_655 . 3_555 163.63(6)
O1 Pb1 O1 1_455 . 3_655 155.19(8)
O1 Pb1 O3 1_455 . . 99.24(4)
O1 Pb1 O3 1_455 . 3_555 99.24(4)
O1 Pb1 O3 3_655 . . 99.24(4)
O1 Pb1 O3 3_655 . 3_555 99.24(4)
O3 Pb1 O3 . . 3_555 83.30(8)
Pb1 La1 La1 . . 2_564 93.503(5)
Pb1 La1 La1 . . 2_565 93.503(5)
Pb1 La1 La2 . . 1_455 63.255(5)
Pb1 La1 La2 . . . 63.255(5)
Pb1 La1 La2 . . 2_565 119.163(4)
Pb1 La1 La2 . . 2_665 119.163(4)
Pb1 La1 La2 . . 3_555 63.255(5)
Pb1 La1 La2 . . 3_655 63.255(5)
Pb1 La1 La2 . . 4_465 119.163(4)
Pb1 La1 La2 . . 4_565 119.163(4)
Pb1 La1 V1 . . 2_665 180.0(5)
Pb1 La1 O2 . . 1_455 92.783(6)
Pb1 La1 O2 . . 2_665 92.783(6)
Pb1 La1 O2 . . 5_665 92.783(6)
Pb1 La1 O2 . . 6_455 92.783(6)
Pb1 La1 O3 . . . 35.91(5)
Pb1 La1 O3 . . 3_555 35.91(5)
Pb1 La1 O4 . . 2_665 150.02(5)
Pb1 La1 O4 . . 4_465 150.02(5)
La1 La1 La1 2_564 . 2_565 172.995(9)
La1 La1 La2 2_564 . 1_455 62.962(4)
La1 La1 La2 2_564 . . 62.962(4)
La1 La1 La2 2_564 . 2_565 118.056(5)
La1 La1 La2 2_564 . 2_665 118.056(5)
La1 La1 La2 2_564 . 3_555 120.636(4)
La1 La1 La2 2_564 . 3_655 120.636(4)
La1 La1 La2 2_564 . 4_465 58.003(4)
La1 La1 La2 2_564 . 4_565 58.003(4)
La1 La1 V1 2_564 . 2_665 86.497(5)
La1 La1 O2 2_564 . 1_455 37.37(4)
La1 La1 O2 2_564 . 2_665 142.07(4)
La1 La1 O2 2_564 . 5_665 37.37(4)
La1 La1 O2 2_564 . 6_455 142.07(4)
La1 La1 O3 2_564 . . 92.836(4)
La1 La1 O3 2_564 . 3_555 92.836(4)
La1 La1 O4 2_564 . 2_665 86.967(5)
La1 La1 O4 2_564 . 4_465 86.967(5)
La1 La1 La2 2_565 . 1_455 120.636(4)
La1 La1 La2 2_565 . . 120.636(4)
La1 La1 La2 2_565 . 2_565 58.003(4)
La1 La1 La2 2_565 . 2_665 58.003(4)
La1 La1 La2 2_565 . 3_555 62.962(4)
La1 La1 La2 2_565 . 3_655 62.962(4)
La1 La1 La2 2_565 . 4_465 118.056(5)
La1 La1 La2 2_565 . 4_565 118.056(5)
La1 La1 V1 2_565 . 2_665 86.497(5)
La1 La1 O2 2_565 . 1_455 142.07(4)
La1 La1 O2 2_565 . 2_665 37.37(4)
La1 La1 O2 2_565 . 5_665 142.07(4)
La1 La1 O2 2_565 . 6_455 37.37(4)
La1 La1 O3 2_565 . . 92.836(4)
La1 La1 O3 2_565 . 3_555 92.836(4)
La1 La1 O4 2_565 . 2_665 86.967(5)
La1 La1 O4 2_565 . 4_465 86.967(5)
La2 La1 La2 1_455 . . 97.379(7)
La2 La1 La2 1_455 . 2_565 85.645(5)
La2 La1 La2 1_455 . 2_665 176.857(6)
La2 La1 La2 1_455 . 3_555 57.761(6)
La2 La1 La2 1_455 . 3_655 126.511(8)
La2 La1 La2 1_455 . 4_465 55.950(5)
La2 La1 La2 1_455 . 4_565 120.965(5)
La2 La1 V1 1_455 . 2_665 116.745(5)
La2 La1 O2 1_455 . 1_455 35.19(2)
La2 La1 O2 1_455 . 2_665 149.42(2)
La2 La1 O2 1_455 . 5_665 95.43(4)
La2 La1 O2 1_455 . 6_455 87.08(4)
La2 La1 O3 1_455 . . 94.36(5)
La2 La1 O3 1_455 . 3_555 36.39(3)
La2 La1 O4 1_455 . 2_665 139.92(3)
La2 La1 O4 1_455 . 4_465 90.83(4)
La2 La1 La2 . . 2_565 176.857(6)
La2 La1 La2 . . 2_665 85.645(5)
La2 La1 La2 . . 3_555 126.511(8)
La2 La1 La2 . . 3_655 57.761(6)
La2 La1 La2 . . 4_465 120.965(5)
La2 La1 La2 . . 4_565 55.950(5)
La2 La1 V1 . . 2_665 116.745(5)
La2 La1 O2 . . 1_455 95.43(4)
La2 La1 O2 . . 2_665 87.08(4)
La2 La1 O2 . . 5_665 35.19(2)
La2 La1 O2 . . 6_455 149.42(2)
La2 La1 O3 . . . 36.39(3)
La2 La1 O3 . . 3_555 94.36(5)
La2 La1 O4 . . 2_665 90.83(4)
La2 La1 O4 . . 4_465 139.92(3)
La2 La1 La2 2_565 . 2_665 91.319(6)
La2 La1 La2 2_565 . 3_555 55.950(5)
La2 La1 La2 2_565 . 3_655 120.965(5)
La2 La1 La2 2_565 . 4_465 60.137(6)
La2 La1 La2 2_565 . 4_565 121.674(8)
La2 La1 V1 2_565 . 2_665 60.837(4)
La2 La1 O2 2_565 . 1_455 86.54(4)
La2 La1 O2 2_565 . 2_665 90.75(4)
La2 La1 O2 2_565 . 5_665 143.89(2)
La2 La1 O2 2_565 . 6_455 31.22(2)
La2 La1 O3 2_565 . . 144.50(3)
La2 La1 O3 2_565 . 3_555 88.58(4)
La2 La1 O4 2_565 . 2_665 86.29(4)
La2 La1 O4 2_565 . 4_465 38.79(3)
La2 La1 La2 2_665 . 3_555 120.965(5)
La2 La1 La2 2_665 . 3_655 55.950(5)
La2 La1 La2 2_665 . 4_465 121.674(8)
La2 La1 La2 2_665 . 4_565 60.137(6)
La2 La1 V1 2_665 . 2_665 60.837(4)
La2 La1 O2 2_665 . 1_455 143.89(2)
La2 La1 O2 2_665 . 2_665 31.22(2)
La2 La1 O2 2_665 . 5_665 86.54(4)
La2 La1 O2 2_665 . 6_455 90.75(4)
La2 La1 O3 2_665 . . 88.58(4)
La2 La1 O3 2_665 . 3_555 144.50(3)
La2 La1 O4 2_665 . 2_665 38.79(3)
La2 La1 O4 2_665 . 4_465 86.29(4)
La2 La1 La2 3_555 . 3_655 97.379(7)
La2 La1 La2 3_555 . 4_465 85.645(5)
La2 La1 La2 3_555 . 4_565 176.857(6)
La2 La1 V1 3_555 . 2_665 116.745(5)
La2 La1 O2 3_555 . 1_455 87.08(4)
La2 La1 O2 3_555 . 2_665 95.43(4)
La2 La1 O2 3_555 . 5_665 149.42(2)
La2 La1 O2 3_555 . 6_455 35.19(2)
La2 La1 O3 3_555 . . 94.36(5)
La2 La1 O3 3_555 . 3_555 36.39(3)
La2 La1 O4 3_555 . 2_665 139.92(3)
La2 La1 O4 3_555 . 4_465 90.83(4)
La2 La1 La2 3_655 . 4_465 176.857(6)
La2 La1 La2 3_655 . 4_565 85.645(5)
La2 La1 V1 3_655 . 2_665 116.745(5)
La2 La1 O2 3_655 . 1_455 149.42(2)
La2 La1 O2 3_655 . 2_665 35.19(2)
La2 La1 O2 3_655 . 5_665 87.08(4)
La2 La1 O2 3_655 . 6_455 95.43(4)
La2 La1 O3 3_655 . . 36.39(3)
La2 La1 O3 3_655 . 3_555 94.36(5)
La2 La1 O4 3_655 . 2_665 90.83(4)
La2 La1 O4 3_655 . 4_465 139.92(3)
La2 La1 La2 4_465 . 4_565 91.319(6)
La2 La1 V1 4_465 . 2_665 60.837(4)
La2 La1 O2 4_465 . 1_455 31.22(2)
La2 La1 O2 4_465 . 2_665 143.89(2)
La2 La1 O2 4_465 . 5_665 90.75(4)
La2 La1 O2 4_465 . 6_455 86.54(4)
La2 La1 O3 4_465 . . 144.50(3)
La2 La1 O3 4_465 . 3_555 88.58(4)
La2 La1 O4 4_465 . 2_665 86.29(4)
La2 La1 O4 4_465 . 4_465 38.79(3)
La2 La1 V1 4_565 . 2_665 60.837(4)
La2 La1 O2 4_565 . 1_455 90.75(4)
La2 La1 O2 4_565 . 2_665 86.54(4)
La2 La1 O2 4_565 . 5_665 31.22(2)
La2 La1 O2 4_565 . 6_455 143.89(2)
La2 La1 O3 4_565 . . 88.58(4)
La2 La1 O3 4_565 . 3_555 144.50(3)
La2 La1 O4 4_565 . 2_665 38.79(3)
La2 La1 O4 4_565 . 4_465 86.29(4)
V1 La1 O2 2_665 . 1_455 87.217(6)
V1 La1 O2 2_665 . 2_665 87.217(6)
V1 La1 O2 2_665 . 5_665 87.217(6)
V1 La1 O2 2_665 . 6_455 87.217(6)
V1 La1 O3 2_665 . . 144.09(5)
V1 La1 O3 2_665 . 3_555 144.09(5)
V1 La1 O4 2_665 . 2_665 29.98(5)
V1 La1 O4 2_665 . 4_465 29.98(5)
O2 La1 O2 1_455 . 2_665 174.434(12)
O2 La1 O2 1_455 . 5_665 74.74(6)
O2 La1 O2 1_455 . 6_455 104.98(6)
O2 La1 O3 1_455 . . 113.29(3)
O2 La1 O3 1_455 . 3_555 71.54(4)
O2 La1 O4 1_455 . 2_665 105.15(3)
O2 La1 O4 1_455 . 4_465 69.79(3)
O2 La1 O2 2_665 . 5_665 104.98(6)
O2 La1 O2 2_665 . 6_455 74.74(6)
O2 La1 O3 2_665 . . 71.54(4)
O2 La1 O3 2_665 . 3_555 113.29(3)
O2 La1 O4 2_665 . 2_665 69.79(3)
O2 La1 O4 2_665 . 4_465 105.15(3)
O2 La1 O2 5_665 . 6_455 174.434(12)
O2 La1 O3 5_665 . . 71.54(4)
O2 La1 O3 5_665 . 3_555 113.29(3)
O2 La1 O4 5_665 . 2_665 69.79(3)
O2 La1 O4 5_665 . 4_465 105.15(3)
O2 La1 O3 6_455 . . 113.29(3)
O2 La1 O3 6_455 . 3_555 71.54(4)
O2 La1 O4 6_455 . 2_665 105.15(3)
O2 La1 O4 6_455 . 4_465 69.79(3)
O3 La1 O3 . . 3_555 71.82(7)
O3 La1 O4 . . 2_665 114.11(7)
O3 La1 O4 . . 4_465 174.07(7)
O3 La1 O4 3_555 . 2_665 174.07(7)
O3 La1 O4 3_555 . 4_465 114.11(7)
O4 La1 O4 2_665 . 4_465 59.97(7)
Pb1 La2 Pb1 . . 1_655 95.550(6)
Pb1 La2 Pb1 . . 10_554 81.294(5)
Pb1 La2 La1 . . . 55.056(6)
Pb1 La2 La1 . . 1_655 122.662(6)
Pb1 La2 La1 . . 2_564 86.564(5)
Pb1 La2 La1 . . 2_664 177.833(4)
Pb1 La2 La2 . . 3_654 118.434(4)
Pb1 La2 La2 . . 3_655 61.566(4)
Pb1 La2 La2 . . 4_565 119.681(4)
Pb1 La2 O1 . . 12_455 56.45(2)
Pb1 La2 O2 . . . 147.35(2)
Pb1 La2 O2 . . 5_665 86.97(4)
Pb1 La2 O3 . . . 28.83(5)
Pb1 La2 O3 . . 3_655 91.96(5)
Pb1 La2 O4 . . . 137.97(5)
Pb1 La2 O4 . . 3_654 82.08(4)
Pb1 La2 Pb1 1_655 . 10_554 81.294(5)
Pb1 La2 La1 1_655 . . 122.662(6)
Pb1 La2 La1 1_655 . 1_655 55.056(6)
Pb1 La2 La1 1_655 . 2_564 177.833(4)
Pb1 La2 La1 1_655 . 2_664 86.564(5)
Pb1 La2 La2 1_655 . 3_654 118.434(4)
Pb1 La2 La2 1_655 . 3_655 61.566(4)
Pb1 La2 La2 1_655 . 4_565 119.681(4)
Pb1 La2 O1 1_655 . 12_455 56.45(2)
Pb1 La2 O2 1_655 . . 86.97(4)
Pb1 La2 O2 1_655 . 5_665 147.35(2)
Pb1 La2 O3 1_655 . . 91.96(5)
Pb1 La2 O3 1_655 . 3_655 28.83(5)
Pb1 La2 O4 1_655 . . 82.08(4)
Pb1 La2 O4 1_655 . 3_654 137.97(5)
Pb1 La2 La1 10_554 . . 129.583(4)
Pb1 La2 La1 10_554 . 1_655 129.583(4)
Pb1 La2 La1 10_554 . 2_564 98.585(6)
Pb1 La2 La1 10_554 . 2_664 98.585(6)
Pb1 La2 La2 10_554 . 3_654 58.129(4)
Pb1 La2 La2 10_554 . 3_655 121.871(6)
Pb1 La2 La2 10_554 . 4_565 145.555(7)
Pb1 La2 O1 10_554 . 12_455 42.31(5)
Pb1 La2 O2 10_554 . . 131.08(3)
Pb1 La2 O2 10_554 . 5_665 131.08(3)
Pb1 La2 O3 10_554 . . 109.03(5)
Pb1 La2 O3 10_554 . 3_655 109.03(5)
Pb1 La2 O4 10_554 . . 56.79(5)
Pb1 La2 O4 10_554 . 3_654 56.79(5)
La1 La2 La1 . . 1_655 97.379(7)
La1 La2 La1 . . 2_564 59.035(4)
La1 La2 La1 . . 2_664 124.050(8)
La1 La2 La2 . . 3_654 118.880(4)
La1 La2 La2 . . 3_655 61.120(4)
La1 La2 La2 . . 4_565 64.667(5)
La1 La2 O1 . . 12_455 110.80(3)
La1 La2 O2 . . . 96.48(4)
La1 La2 O2 . . 5_665 37.37(3)
La1 La2 O3 . . . 37.50(5)
La1 La2 O3 . . 3_655 97.47(4)
La1 La2 O4 . . . 153.79(5)
La1 La2 O4 . . 3_654 90.23(5)
La1 La2 La1 1_655 . 2_564 124.050(8)
La1 La2 La1 1_655 . 2_664 59.035(4)
La1 La2 La2 1_655 . 3_654 118.880(4)
La1 La2 La2 1_655 . 3_655 61.120(4)
La1 La2 La2 1_655 . 4_565 64.667(5)
La1 La2 O1 1_655 . 12_455 110.80(3)
La1 La2 O2 1_655 . . 37.37(3)
La1 La2 O2 1_655 . 5_665 96.48(4)
La1 La2 O3 1_655 . . 97.47(4)
La1 La2 O3 1_655 . 3_655 37.50(5)
La1 La2 O4 1_655 . . 90.23(5)
La1 La2 O4 1_655 . 3_654 153.79(5)
La1 La2 La1 2_564 . 2_664 91.319(6)
La1 La2 La2 2_564 . 3_654 59.931(4)
La1 La2 La2 2_564 . 3_655 120.069(4)
La1 La2 La2 2_564 . 4_565 59.383(5)
La1 La2 O1 2_564 . 12_455 124.75(3)
La1 La2 O2 2_564 . . 91.51(4)
La1 La2 O2 2_564 . 5_665 33.08(2)
La1 La2 O3 2_564 . . 90.13(5)
La1 La2 O3 2_564 . 3_655 151.80(5)
La1 La2 O4 2_564 . . 96.03(4)
La1 La2 O4 2_564 . 3_654 41.81(5)
La1 La2 La2 2_664 . 3_654 59.931(4)
La1 La2 La2 2_664 . 3_655 120.069(4)
La1 La2 La2 2_664 . 4_565 59.383(5)
La1 La2 O1 2_664 . 12_455 124.75(3)
La1 La2 O2 2_664 . . 33.08(2)
La1 La2 O2 2_664 . 5_665 91.51(4)
La1 La2 O3 2_664 . . 151.80(5)
La1 La2 O3 2_664 . 3_655 90.13(5)
La1 La2 O4 2_664 . . 41.81(5)
La1 La2 O4 2_664 . 3_654 96.03(4)
La2 La2 La2 3_654 . 3_655 180.0(5)
La2 La2 La2 3_654 . 4_565 87.426(5)
La2 La2 O1 3_654 . 12_455 100.44(5)
La2 La2 O2 3_654 . . 87.949(5)
La2 La2 O2 3_654 . 5_665 87.949(5)
La2 La2 O3 3_654 . . 141.46(4)
La2 La2 O3 3_654 . 3_655 141.46(4)
La2 La2 O4 3_654 . . 37.90(4)
La2 La2 O4 3_654 . 3_654 37.90(4)
La2 La2 La2 3_655 . 4_565 92.574(6)
La2 La2 O1 3_655 . 12_455 79.56(5)
La2 La2 O2 3_655 . . 92.051(6)
La2 La2 O2 3_655 . 5_665 92.051(6)
La2 La2 O3 3_655 . . 38.54(4)
La2 La2 O3 3_655 . 3_655 38.54(4)
La2 La2 O4 3_655 . . 142.10(4)
La2 La2 O4 3_655 . 3_654 142.10(4)
La2 La2 O1 4_565 . 12_455 172.14(5)
La2 La2 O2 4_565 . . 37.17(4)
La2 La2 O2 4_565 . 5_665 37.17(4)
La2 La2 O3 4_565 . . 97.90(5)
La2 La2 O3 4_565 . 3_655 97.90(5)
La2 La2 O4 4_565 . . 96.82(5)
La2 La2 O4 4_565 . 3_654 96.82(5)
O1 La2 O2 12_455 . . 142.12(4)
O1 La2 O2 12_455 . 5_665 142.12(4)
O1 La2 O3 12_455 . . 75.97(7)
O1 La2 O3 12_455 . 3_655 75.97(7)
O1 La2 O4 12_455 . . 89.49(7)
O1 La2 O4 12_455 . 3_654 89.49(7)
O2 La2 O2 . . 5_665 74.34(6)
O2 La2 O3 . . . 118.74(5)
O2 La2 O3 . . 3_655 74.82(6)
O2 La2 O4 . . . 74.66(6)
O2 La2 O4 . . 3_654 116.99(5)
O2 La2 O3 5_665 . . 74.82(6)
O2 La2 O3 5_665 . 3_655 118.74(5)
O2 La2 O4 5_665 . . 116.99(5)
O2 La2 O4 5_665 . 3_654 74.66(6)
O3 La2 O3 . . 3_655 75.84(6)
O3 La2 O4 . . . 165.20(8)
O3 La2 O4 . . 3_654 103.65(6)
O3 La2 O4 3_655 . . 103.65(6)
O3 La2 O4 3_655 . 3_654 165.20(8)
O4 La2 O4 . . 3_654 72.96(6)
Pb1 V1 Pb1 10_554 . 10_654 116.04(2)
Pb1 V1 La1 10_554 . 2_664 121.979(12)
Pb1 V1 O1 10_554 . . 72.30(4)
Pb1 V1 O1 10_554 . 3_754 72.30(4)
Pb1 V1 O4 10_554 . . 69.71(8)
Pb1 V1 O4 10_554 . 3_754 174.25(9)
Pb1 V1 La1 10_654 . 2_664 121.979(12)
Pb1 V1 O1 10_654 . . 72.30(4)
Pb1 V1 O1 10_654 . 3_754 72.30(4)
Pb1 V1 O4 10_654 . . 174.25(9)
Pb1 V1 O4 10_654 . 3_754 69.71(8)
La1 V1 O1 2_664 . . 125.03(9)
La1 V1 O1 2_664 . 3_754 125.03(9)
La1 V1 O4 2_664 . . 52.27(8)
La1 V1 O4 2_664 . 3_754 52.27(8)
O1 V1 O1 . . 3_754 109.94(13)
O1 V1 O4 . . . 110.56(6)
O1 V1 O4 . . 3_754 110.56(6)
O1 V1 O4 3_754 . . 110.56(6)
O1 V1 O4 3_754 . 3_754 110.56(6)
O4 V1 O4 . . 3_754 104.54(12)
Pb1 O1 La2 1_655 . 12_555 91.97(8)
Pb1 O1 V1 1_655 . . 132.56(13)
La2 O1 V1 12_555 . . 135.46(13)
La1 O2 La1 1_655 . 2_664 105.26(8)
La1 O2 La2 1_655 . . 107.440(7)
La1 O2 La2 1_655 . 4_565 115.708(7)
La1 O2 La2 2_664 . . 115.708(7)
La1 O2 La2 2_664 . 4_565 107.440(7)
La2 O2 La2 . . 4_565 105.66(9)
Pb1 O3 La1 . . . 102.44(9)
Pb1 O3 La2 . . . 119.01(6)
Pb1 O3 La2 . . 3_655 119.01(6)
La1 O3 La2 . . . 106.11(6)
La1 O3 La2 . . 3_655 106.11(6)
La2 O3 La2 . . 3_655 102.92(8)
La1 O4 La2 2_664 . . 99.40(7)
La1 O4 La2 2_664 . 3_654 99.40(7)
La1 O4 V1 2_664 . . 97.75(10)
La2 O4 La2 . . 3_654 104.20(8)
La2 O4 V1 . . . 124.38(6)
La2 O4 V1 3_654 . . 124.38(6)
loop_
_geom_bond_atom_site_label_1
_geom_bond_atom_site_label_2
_geom_bond_site_symmetry_1
_geom_bond_site_symmetry_2
_geom_bond_distance
Pb1 La1 . . 3.6479(6)
Pb1 La2 . 1_455 3.9742(4)
Pb1 La2 . . 3.9742(4)
Pb1 La2 . 10_555 3.9046(5)
Pb1 La2 . 3_555 3.9742(4)
Pb1 La2 . 3_655 3.9742(4)
Pb1 La2 . 12_455 3.9046(5)
Pb1 V1 . 10_555 3.4694(6)
Pb1 V1 . 10_655 3.4694(6)
Pb1 O1 . 1_455 2.630(3)
Pb1 O1 . 3_655 2.630(3)
Pb1 O3 . . 2.191(2)
Pb1 O3 . 3_555 2.191(2)
La1 La1 . 2_564 3.9613(5)
La1 La1 . 2_565 3.9613(5)
La1 La2 . 1_455 3.9179(4)
La1 La2 . . 3.9179(4)
La1 La2 . 2_565 4.1148(4)
La1 La2 . 2_665 4.1148(4)
La1 La2 . 3_555 3.9179(4)
La1 La2 . 3_655 3.9179(4)
La1 La2 . 4_465 4.1148(4)
La1 La2 . 4_565 4.1148(4)
La1 V1 . 2_665 3.4836(10)
La1 O2 . 1_455 2.4923(14)
La1 O2 . 2_665 2.4923(14)
La1 O2 . 5_665 2.4923(14)
La1 O2 . 6_455 2.4923(14)
La1 O3 . . 2.483(2)
La1 O3 . 3_555 2.483(2)
La1 O4 . 2_665 2.781(2)
La1 O4 . 4_465 2.781(2)
La2 La2 . 3_654 4.1233(6)
La2 La2 . 3_655 3.7846(5)
La2 La2 . 4_565 3.7720(6)
La2 O1 . 12_455 2.797(3)
La2 O2 . . 2.3669(14)
La2 O2 . 5_665 2.3669(14)
La2 O3 . . 2.4192(14)
La2 O3 . 3_655 2.4192(14)
La2 O4 . . 2.6127(14)
La2 O4 . 3_654 2.6127(14)
V1 O1 . . 1.692(3)
V1 O1 . 3_754 1.692(3)
V1 O4 . . 1.757(2)
V1 O4 . 3_754 1.757(2)
loop_
_refln_index_h
_refln_index_k
_refln_index_l
_refln_F_squared_calc
_refln_F_squared_meas
_refln_F_squared_sigma
_refln_observed_status
2 0 0 647967.00 660864.00 6238.93 o
4 0 0 621174.00 663331.00 7105.44 o
6 0 0 237892.00 254467.00 4448.12 o
8 0 0 185142.00 186153.00 3688.89 o
1 1 0 132.24 247.58 8.25 o
3 1 0 194.26 330.10 16.51 o
5 1 0 77.37 82.53 16.51 o
7 1 0 160.68 156.80 41.26 o
9 1 0 58.64 -74.27 99.03 <
0 2 0 508.95 511.66 16.51 o
2 2 0 11509.20 13558.90 99.03 o
4 2 0 422.55 618.94 24.76 o
6 2 0 995.03 1147.10 66.02 o
8 2 0 370.22 429.13 66.02 o
1 3 0 5297.59 6040.86 49.52 o
3 3 0 6017.18 6981.65 57.77 o
5 3 0 2241.47 2583.05 49.52 o
7 3 0 3729.75 3837.43 115.54 o
9 3 0 1178.47 1122.35 173.30 o
0 4 0 201.83 49.52 16.51 o
2 4 0 7773.43 8417.60 66.02 o
4 4 0 173.75 198.06 16.51 o
6 4 0 771.52 841.76 57.77 o
8 4 0 119.81 140.29 66.02 <
1 5 0 789042.00 734312.00 5256.87 o
3 5 0 545013.00 557806.00 3961.22 o
5 5 0 303168.00 310040.00 2525.28 o
7 5 0 193049.00 191459.00 2673.83 o
9 5 0 101136.00 100376.00 2921.40 o
0 6 0 1987.22 2030.13 49.52 o
2 6 0 11248.60 12304.50 90.78 o
4 6 0 1075.13 1147.10 33.01 o
6 6 0 2540.81 2731.59 99.03 o
8 6 0 366.85 132.04 82.53 <
1 7 0 9286.80 9515.19 82.53 o
3 7 0 6715.24 6940.39 74.27 o
5 7 0 3145.34 3144.22 66.02 o
7 7 0 1803.85 1766.04 90.78 o
9 7 0 760.03 1246.13 222.82 o
0 8 0 106341.00 113860.00 982.05 o
2 8 0 8095.92 8467.11 74.27 o
4 8 0 44825.10 45075.40 338.35 o
6 8 0 6722.76 6403.98 132.04 o
8 8 0 14648.10 14285.20 577.68 o
1 9 0 1102.32 916.03 24.76 o
3 9 0 692.71 651.95 24.76 o
5 9 0 525.54 511.66 41.26 o
7 9 0 272.20 264.08 57.77 o
9 9 0 191.24 231.07 222.82 <
0 10 0 455040.00 465774.00 4885.51 o
2 10 0 308999.00 308431.00 2418.00 o
4 10 0 269188.00 272920.00 2203.43 o
6 10 0 146074.00 142720.00 1675.27 o
8 10 0 103953.00 100334.00 2904.90 o
1 11 0 7046.46 6659.80 82.53 o
3 11 0 4012.59 4167.54 66.02 o
5 11 0 4212.33 4357.34 107.28 o
7 11 0 1273.60 1254.39 90.78 o
9 11 0 1512.30 1452.45 313.60 o
0 12 0 12433.50 13484.70 198.06 o
2 12 0 4533.53 4505.89 74.27 o
4 12 0 7564.42 7650.11 140.29 o
6 12 0 2676.98 2640.81 107.28 o
8 12 0 2605.72 2830.62 272.33 o
1 13 0 53961.90 50992.50 404.38 o
3 13 0 47206.50 46866.20 420.88 o
5 13 0 28639.10 28174.20 387.87 o
7 13 0 22519.80 21167.80 635.45 o
0 14 0 576.35 594.18 49.52 o
2 14 0 1011.02 883.02 41.26 o
4 14 0 481.16 412.63 57.77 o
6 14 0 576.73 536.42 66.02 o
8 14 0 296.97 -90.78 173.30 <
1 15 0 177513.00 172313.00 1287.40 o
3 15 0 145460.00 140425.00 1617.50 o
5 15 0 105902.00 107168.00 1312.15 o
7 15 0 68691.50 68983.00 1840.32 o
0 16 0 874.97 808.75 66.02 o
2 16 0 13085.10 12205.50 189.81 o
4 16 0 1003.51 891.28 74.27 o
6 16 0 6092.59 6065.62 189.81 o
8 16 0 569.72 206.31 247.58 <
1 17 0 8679.96 8607.41 181.56 o
3 17 0 7567.89 6767.09 173.30 o
5 17 0 5192.75 4802.98 156.80 o
7 17 0 3589.07 4093.26 437.39 o
0 18 0 68282.10 71665.10 1402.93 o
2 18 0 44656.70 42475.90 602.44 o
4 18 0 49410.70 47221.10 643.70 o
6 18 0 25903.30 26045.00 767.49 o
1 19 0 866.56 998.56 90.78 o
3 19 0 623.20 544.67 82.53 o
5 19 0 826.24 833.51 107.28 o
7 19 0 404.12 247.58 255.83 <
0 20 0 68007.00 71937.50 1419.44 o
2 20 0 70526.80 70435.50 949.04 o
4 20 0 50251.10 46041.00 750.98 o
6 20 0 39618.00 39381.20 1543.23 o
1 21 0 6177.61 6560.77 189.81 o
3 21 0 4680.78 4514.14 181.56 o
5 21 0 4453.70 4621.43 330.10 o
7 21 0 2052.20 1452.45 561.17 <
0 22 0 7822.69 8359.83 297.09 o
2 22 0 9211.51 9391.40 222.82 o
4 22 0 5692.00 5141.34 396.12 o
6 22 0 4945.46 4489.39 486.90 o
1 23 0 54717.10 55671.70 808.75 o
3 23 0 47500.90 48302.20 891.28 o
5 23 0 37289.50 35535.50 1460.70 o
7 23 0 26308.50 20656.10 1650.51 o
0 24 0 381.20 519.91 140.29 o
2 24 0 2105.52 2038.38 156.80 o
4 24 0 296.29 404.38 231.07 <
6 24 0 1600.14 1716.53 569.43 o
1 25 0 18871.10 19674.10 618.94 o
3 25 0 16344.40 18815.80 759.23 o
5 25 0 13079.10 12733.70 1229.63 o
0 26 0 4677.90 4959.78 429.13 o
2 26 0 8089.31 8970.52 495.15 o
4 26 0 3457.23 3969.47 511.66 o
6 26 0 4553.08 4935.02 858.27 o
1 27 0 5863.27 5900.57 420.88 o
3 27 0 4655.64 5512.70 569.43 o
5 27 0 4193.28 3870.44 742.73 o
0 28 0 47947.90 51223.60 2847.13 o
2 28 0 46929.80 47757.50 1914.59 o
4 28 0 37958.60 41279.20 2517.03 o
1 29 0 1014.84 1386.43 346.61 o
3 29 0 837.76 916.03 346.61 <
0 30 0 1879.17 2203.43 577.68 o
2 30 0 1354.15 2079.64 404.38 o
4 30 0 1587.22 1980.61 610.69 o
1 31 0 4720.91 4761.72 519.91 o
3 31 0 4113.45 5306.39 800.50 o
0 32 0 1497.70 1551.48 544.67 <
2 32 0 3869.50 4596.67 817.00 o
1 1 1 30626.70 30955.30 148.55 o
3 1 1 25515.00 26977.60 140.29 o
5 1 1 14737.60 15300.20 99.03 o
7 1 1 10214.20 10497.20 140.29 o
9 1 1 4747.64 4852.50 363.11 o
0 2 1 16370.90 15655.10 123.79 o
2 2 1 13062.70 13558.90 74.27 o
4 2 1 9207.90 9671.98 66.02 o
6 2 1 5019.66 5141.34 74.27 o
8 2 1 3484.45 3309.27 115.54 o
10 2 1 1366.22 957.29 198.06 o
1 3 1 24930.70 24741.10 115.54 o
3 3 1 16736.10 17181.80 90.78 o
5 3 1 12590.60 12931.70 99.03 o
7 3 1 6372.20 6379.22 107.28 o
9 3 1 4196.79 4522.40 354.86 o
0 4 1 10803.00 9226.35 66.02 o
2 4 1 13513.10 13715.70 74.27 o
4 4 1 7331.10 7295.25 49.52 o
6 4 1 5606.21 5388.91 82.53 o
8 4 1 2645.82 2607.80 115.54 o
10 4 1 1560.34 1650.51 247.58 o
1 5 1 18707.50 19277.90 90.78 o
3 5 1 11889.30 12345.80 74.27 o
5 5 1 9080.64 9416.16 82.53 o
7 5 1 4362.18 4415.11 90.78 o
9 5 1 3250.96 3160.73 280.59 o
0 6 1 58450.10 54277.00 338.35 o
2 6 1 48958.80 49168.70 247.58 o
4 6 1 32312.80 32118.90 173.30 o
6 6 1 20870.80 20392.00 214.57 o
8 6 1 10856.90 10505.50 264.08 o
10 6 1 6756.65 7361.27 503.40 o
1 7 1 6006.83 5859.31 41.26 o
3 7 1 3623.76 3565.10 33.01 o
5 7 1 3001.13 3020.43 49.52 o
7 7 1 1344.75 1320.41 57.77 o
9 7 1 1017.24 808.75 173.30 o
0 8 1 40268.00 39207.90 280.59 o
2 8 1 24393.00 24113.90 132.04 o
4 8 1 22157.20 21960.00 132.04 o
6 8 1 10598.80 10307.40 132.04 o
8 8 1 7455.71 6692.82 206.31 o
10 8 1 3228.66 3581.61 354.86 o
1 9 1 2241.78 2104.40 24.76 o
3 9 1 1309.97 1262.64 24.76 o
5 9 1 1271.94 1287.40 41.26 o
7 9 1 430.79 396.12 49.52 o
9 9 1 368.74 511.66 181.56 <
0 10 1 56742.90 58213.50 412.63 o
2 10 1 49528.10 48954.10 255.83 o
4 10 1 34354.40 34949.50 222.82 o
6 10 1 20798.00 20334.30 231.07 o
8 10 1 13385.10 13542.40 404.38 o
10 10 1 6884.34 5752.02 412.63 o
1 11 1 57423.70 52799.80 280.59 o
3 11 1 45523.70 45727.40 255.83 o
5 11 1 28306.20 27910.10 255.83 o
7 11 1 18321.40 17726.50 247.58 o
9 11 1 9646.70 9127.32 495.15 o
0 12 1 995.33 1039.82 33.01 o
2 12 1 1.81 -8.25 16.51 <
4 12 1 635.73 717.97 33.01 o
6 12 1 29.27 99.03 41.26 <
8 12 1 274.07 239.32 115.54 <
1 13 1 28088.00 25747.90 156.80 o
3 13 1 22952.80 22711.00 156.80 o
5 13 1 13429.80 13633.20 165.05 o
7 13 1 9285.26 8673.43 222.82 o
9 13 1 4308.31 4250.06 379.62 o
0 14 1 1071.75 1246.13 41.26 o
2 14 1 838.74 850.01 24.76 o
4 14 1 713.96 833.51 41.26 o
6 14 1 621.92 651.95 57.77 o
8 14 1 361.72 297.09 156.80 <
1 15 1 74460.60 72506.90 387.87 o
3 15 1 58714.20 56175.10 453.89 o
5 15 1 42230.70 42178.80 429.13 o
7 15 1 25787.80 25566.40 528.16 o
9 15 1 16450.90 16967.20 750.98 o
0 16 1 34604.80 36121.40 363.11 o
2 16 1 41608.60 38102.00 321.85 o
4 16 1 23863.60 23610.50 255.83 o
6 16 1 20711.90 20375.50 288.84 o
8 16 1 9940.82 11124.40 577.68 o
1 17 1 699.09 660.20 41.26 o
3 17 1 375.74 313.60 49.52 o
5 17 1 392.14 445.64 57.77 o
7 17 1 101.46 247.58 115.54 <
9 17 1 125.52 66.02 189.81 <
0 18 1 16234.90 16744.40 255.83 o
2 18 1 13787.50 13591.90 173.30 o
4 18 1 10707.90 10125.90 181.56 o
6 18 1 7069.49 7361.27 247.58 o
8 18 1 4014.56 4802.98 445.64 o
1 19 1 6438.91 6453.49 132.04 o
3 19 1 5703.51 5190.85 132.04 o
5 19 1 3921.04 3466.07 140.29 o
7 19 1 3036.22 3226.75 288.84 o
0 20 1 73637.80 76525.90 1064.58 o
2 20 1 55503.60 55226.00 561.17 o
4 20 1 52986.30 49622.60 577.68 o
6 20 1 30833.20 29346.10 651.95 o
8 20 1 24253.30 24559.60 1006.81 o
1 21 1 20565.60 21489.60 280.59 o
3 21 1 16881.00 16397.80 247.58 o
5 21 1 13869.00 13187.60 412.63 o
7 21 1 8464.51 7608.85 437.39 o
0 22 1 1364.09 1386.43 115.54 o
2 22 1 1471.44 1361.67 90.78 o
4 22 1 970.14 924.28 115.54 o
6 22 1 661.16 717.97 181.56 o
1 23 1 5211.93 5677.75 148.55 o
3 23 1 4598.74 4736.96 156.80 o
5 23 1 3180.68 3012.18 247.58 o
7 23 1 2265.29 1369.92 247.58 o
0 24 1 8371.47 8665.17 247.58 o
2 24 1 12188.20 12750.20 255.83 o
4 24 1 6364.67 6362.71 288.84 o
6 24 1 7330.42 6940.39 453.89 o
1 25 1 44846.60 45595.30 676.71 o
3 25 1 40117.70 41436.00 783.99 o
5 25 1 29736.80 28520.80 808.75 o
0 26 1 8663.16 8929.25 420.88 o
2 26 1 8952.47 9086.05 321.85 o
4 26 1 6942.08 6824.86 330.10 o
6 26 1 5601.76 5859.31 495.15 o
1 27 1 1278.21 1567.98 173.30 o
3 27 1 1037.52 1056.33 181.56 o
5 27 1 820.34 1229.63 313.60 o
0 28 1 528.26 825.26 231.07 o
2 28 1 1519.89 1988.86 181.56 o
4 28 1 393.57 585.93 231.07 <
1 29 1 10513.40 11405.00 404.38 o
3 29 1 8947.65 9605.96 495.15 o
0 30 1 27519.20 28364.00 998.56 o
2 30 1 24602.00 25252.80 717.97 o
4 30 1 21782.00 22438.70 924.28 o
1 31 1 3406.71 3523.84 255.83 o
3 31 1 3024.76 3069.95 313.60 o
0 32 1 1191.02 891.28 354.86 <
0 0 2 37551.50 36195.70 1279.14 o
2 0 2 7916.68 6676.31 57.77 o
4 0 2 16136.60 16538.10 140.29 o
6 0 2 4318.71 4629.68 99.03 o
8 0 2 4325.97 5100.07 239.32 o
10 0 2 1370.34 1279.14 288.84 o
1 1 2 346448.00 355000.00 1865.08 o
3 1 2 213115.00 226796.00 1122.35 o
5 1 2 143299.00 152763.00 883.02 o
7 1 2 75226.80 76245.30 783.99 o
9 1 2 51257.10 51908.50 1617.50 o
0 2 2 50348.60 50167.20 445.64 o
2 2 2 14539.90 14491.50 74.27 o
4 2 2 22957.20 23965.40 140.29 o
6 2 2 7162.32 7410.79 90.78 o
8 2 2 6777.44 7121.95 189.81 o
10 2 2 2209.32 2261.20 272.33 o
1 3 2 44079.30 44704.00 231.07 o
3 3 2 28380.20 29593.60 156.80 o
5 3 2 17360.70 18073.10 132.04 o
7 3 2 8947.15 9011.78 140.29 o
9 3 2 5338.50 6139.90 371.36 o
0 4 2 231125.00 213584.00 1411.19 o
2 4 2 457456.00 473812.00 2269.45 o
4 4 2 150196.00 157071.00 800.50 o
6 4 2 159984.00 163615.00 1353.42 o
8 4 2 62282.70 62661.60 949.04 o
10 4 2 53990.10 52106.60 1650.51 o
1 5 2 16706.80 15391.00 82.53 o
3 5 2 12577.90 12502.60 74.27 o
5 5 2 6509.32 6676.31 66.02 o
7 5 2 3947.51 4159.28 99.03 o
9 5 2 1862.37 2459.26 272.33 o
0 6 2 166973.00 159654.00 1048.07 o
2 6 2 202054.00 208113.00 1006.81 o
4 6 2 91938.10 95614.00 503.41 o
6 6 2 73837.90 74702.10 668.46 o
8 6 2 34982.30 35032.10 577.68 o
10 6 2 26215.70 25789.20 949.04 o
1 7 2 15781.10 14937.10 82.53 o
3 7 2 14560.00 14730.80 82.53 o
5 7 2 6196.13 6090.38 66.02 o
7 7 2 5476.34 5430.18 115.54 o
9 7 2 1661.17 1832.07 247.58 o
0 8 2 27485.80 26944.60 206.31 o
2 8 2 42928.30 43474.40 222.82 o
4 8 2 15485.50 15836.60 99.03 o
6 8 2 14025.70 13814.80 181.56 o
8 8 2 5470.92 5141.34 222.82 o
10 8 2 4277.38 4002.49 346.61 o
1 9 2 325752.00 310420.00 1460.70 o
3 9 2 239260.00 240438.00 1221.38 o
5 9 2 173334.00 171026.00 1295.65 o
7 9 2 98178.20 94673.20 1031.57 o
9 9 2 66055.80 62620.30 1922.84 o
0 10 2 4689.20 4481.13 57.77 o
2 10 2 10234.10 9911.31 66.02 o
4 10 2 2614.50 2583.05 41.26 o
6 10 2 3089.87 3177.23 82.53 o
8 10 2 813.10 561.17 107.28 o
10 10 2 764.39 858.27 222.82 o
1 11 2 64491.10 62834.90 321.85 o
3 11 2 50690.10 52783.30 288.84 o
5 11 2 33398.90 33918.00 313.60 o
7 11 2 22285.80 22323.10 354.86 o
9 11 2 13677.90 13550.70 610.69 o
0 12 2 22316.00 22867.80 189.81 o
2 12 2 825.24 841.76 24.76 o
4 12 2 10668.50 10777.80 107.28 o
6 12 2 622.84 610.69 49.52 o
8 12 2 2909.11 2682.08 222.82 o
1 13 2 16949.20 16744.40 115.54 o
3 13 2 12639.30 12874.00 107.28 o
5 13 2 8930.05 8978.77 140.29 o
7 13 2 5184.49 5050.56 165.05 o
9 13 2 3447.26 3507.33 346.61 o
0 14 2 221882.00 227259.00 1675.27 o
2 14 2 245800.00 225443.00 1279.14 o
4 14 2 152994.00 149726.00 1246.13 o
6 14 2 122459.00 119984.00 1213.12 o
8 14 2 65054.70 64468.90 1980.61 o
1 15 2 436.94 429.13 24.76 o
3 15 2 194.92 189.81 33.01 o
5 15 2 290.44 437.39 49.52 o
7 15 2 133.31 214.57 90.78 <
9 15 2 108.24 313.60 214.57 <
0 16 2 13946.00 14994.90 189.81 o
2 16 2 7981.16 8062.74 99.03 o
4 16 2 9920.59 10101.10 165.05 o
6 16 2 5151.80 5388.91 156.80 o
8 16 2 5089.77 5124.83 363.11 o
1 17 2 515.67 651.95 41.26 o
3 17 2 551.18 618.94 57.77 o
5 17 2 353.95 330.10 66.02 o
7 17 2 296.42 470.39 132.04 o
0 18 2 6281.68 6511.26 148.55 o
2 18 2 3523.54 3523.84 90.78 o
4 18 2 4547.99 4390.35 132.04 o
6 18 2 2182.88 2162.17 148.55 o
8 18 2 2285.83 2046.63 305.34 o
1 19 2 150183.00 151327.00 1411.19 o
3 19 2 128099.00 121775.00 1196.62 o
5 19 2 94232.40 89424.60 1155.36 o
7 19 2 64338.40 63363.10 1386.43 o
0 20 2 6410.11 6775.34 181.56 o
2 20 2 214.76 165.05 57.77 <
4 20 2 4519.62 4324.33 132.04 o
6 20 2 207.82 231.07 132.04 <
8 20 2 2168.27 1295.65 264.08 o
1 21 2 420.90 577.68 66.02 o
3 21 2 436.88 594.18 74.27 o
5 21 2 385.11 313.60 123.79 <
7 21 2 437.43 189.81 173.30 <
0 22 2 840.35 940.79 107.28 o
2 22 2 3345.59 3358.79 115.54 o
4 22 2 750.85 478.65 99.03 o
6 22 2 2300.31 2252.95 239.32 o
1 23 2 1171.22 1114.09 82.53 o
3 23 2 1351.56 1279.14 115.54 o
5 23 2 759.44 577.68 173.30 o
7 23 2 1148.81 1097.59 231.07 o
0 24 2 82875.00 85191.00 1567.98 o
2 24 2 72683.50 75675.90 1006.81 o
4 24 2 63123.00 62092.20 1089.34 o
6 24 2 44295.20 41881.70 965.55 o
1 25 2 6282.29 6626.80 189.81 o
3 25 2 6059.42 6172.91 264.08 o
5 25 2 3925.76 3441.31 264.08 o
0 26 2 2413.20 2583.05 214.57 o
2 26 2 1646.15 1865.08 165.05 o
4 26 2 1742.46 1914.59 214.57 o
6 26 2 889.75 767.49 214.57 o
1 27 2 5111.75 5496.20 231.07 o
3 27 2 4671.19 4604.92 272.33 o
5 27 2 3823.41 3466.07 264.08 o
0 28 2 1431.22 1246.13 198.06 o
2 28 2 138.75 148.55 148.55 <
4 28 2 1238.88 1138.85 198.06 o
1 29 2 36348.60 38250.60 759.23 o
3 29 2 32548.00 35188.90 817.00 o
0 30 2 10620.20 10934.60 569.43 o
2 30 2 6329.04 6569.03 321.85 o
1 31 2 4514.50 4431.62 264.08 o
0 32 2 6795.15 6461.74 412.63 o
1 1 3 75777.00 75692.40 503.40 o
3 1 3 54475.10 55919.30 288.84 o
5 1 3 29857.40 30501.40 222.82 o
7 1 3 18697.90 18345.40 247.58 o
9 1 3 8983.44 8533.13 437.39 o
0 2 3 916.82 800.50 33.01 o
2 2 3 755.03 627.19 16.51 o
4 2 3 737.40 701.47 16.51 o
6 2 3 324.40 379.62 33.01 o
8 2 3 311.58 338.35 74.27 o
10 2 3 83.59 156.80 156.80 <
1 3 3 13213.70 13303.10 82.53 o
3 3 3 7520.16 7468.55 49.52 o
5 3 3 4835.75 4736.96 57.77 o
7 3 3 1933.93 2030.13 74.27 o
9 3 3 1235.83 1526.72 214.57 o
0 4 3 22866.20 21861.00 181.56 o
2 4 3 23997.60 24411.00 140.29 o
4 4 3 13832.50 13963.30 90.78 o
6 4 3 9771.75 9705.00 123.79 o
8 4 3 4855.25 4976.29 198.06 o
10 4 3 2850.21 2913.15 305.34 o
1 5 3 25075.50 25426.10 140.29 o
3 5 3 14998.30 15135.20 90.78 o
5 5 3 9752.60 9985.58 99.03 o
7 5 3 4409.79 4481.13 107.28 o
9 5 3 3055.79 3688.89 321.85 o
0 6 3 87676.00 86181.40 602.44 o
2 6 3 74585.30 74792.80 396.12 o
4 6 3 50045.70 50398.30 288.84 o
6 6 3 32206.50 31995.10 313.60 o
8 6 3 17360.40 16810.40 379.62 o
10 6 3 10712.00 10761.30 544.67 o
1 7 3 3055.19 2987.42 33.01 o
3 7 3 2014.65 2038.38 24.76 o
5 7 3 608.91 734.48 33.01 o
7 7 3 497.60 420.88 49.52 o
9 7 3 157.32 338.35 173.30 <
0 8 3 16966.60 16793.90 140.29 o
2 8 3 9401.75 9341.88 66.02 o
4 8 3 8975.17 8929.25 74.27 o
6 8 3 3733.42 3829.18 82.53 o
8 8 3 2758.25 2797.61 156.80 o
10 8 3 985.57 1006.81 231.07 o
1 9 3 1286.11 1345.17 24.76 o
3 9 3 1055.60 1114.09 24.76 o
5 9 3 1335.39 1386.43 41.26 o
7 9 3 589.59 618.94 57.77 o
9 9 3 546.15 585.93 173.30 o
0 10 3 45378.20 45463.30 330.10 o
2 10 3 39125.00 38729.20 206.31 o
4 10 3 27373.10 27910.10 214.57 o
6 10 3 16293.60 16331.80 206.31 o
8 10 3 10554.50 10290.90 363.11 o
1 11 3 63810.10 61506.20 321.85 o
3 11 3 53586.40 53451.70 330.10 o
5 11 3 36142.50 36055.40 338.35 o
7 11 3 24446.60 23825.10 437.39 o
9 11 3 13722.80 13129.80 602.44 o
0 12 3 3324.32 3449.56 57.77 o
2 12 3 6251.62 6181.16 57.77 o
4 12 3 1882.20 2046.63 57.77 o
6 12 3 2357.82 2335.47 82.53 o
8 12 3 662.54 866.52 189.81 o
1 13 3 7490.24 7394.28 66.02 o
3 13 3 6721.53 6866.12 82.53 o
5 13 3 3947.30 4241.81 99.03 o
7 13 3 3086.52 3127.72 165.05 o
9 13 3 1305.92 1691.77 264.08 o
0 14 3 1392.33 1534.97 49.52 o
2 14 3 1042.61 1180.11 41.26 o
4 14 3 779.22 750.98 49.52 o
6 14 3 583.71 676.71 66.02 o
8 14 3 312.06 330.10 189.81 <
1 15 3 44542.90 43837.50 313.60 o
3 15 3 36094.50 35048.60 288.84 o
5 15 3 27044.60 27018.80 313.60 o
7 15 3 16929.80 16818.70 387.87 o
9 15 3 11100.50 11091.40 544.67 o
0 16 3 45325.30 46049.20 511.66 o
2 16 3 52026.40 49936.20 396.12 o
4 16 3 32856.50 31797.10 346.61 o
6 16 3 28099.90 28463.00 478.65 o
8 16 3 14826.20 15085.70 618.94 o
1 17 3 4178.92 4225.30 82.53 o
3 17 3 3124.03 3061.69 82.53 o
5 17 3 2814.28 2657.32 99.03 o
7 17 3 1396.90 1551.48 181.56 o
0 18 3 5246.64 5281.63 132.04 o
2 18 3 4509.11 4382.10 90.78 o
4 18 3 3616.63 3581.61 115.54 o
6 18 3 2526.61 2517.03 148.55 o
8 18 3 1382.55 1246.13 222.82 o
1 19 3 4454.29 4357.34 99.03 o
3 19 3 4094.44 3969.47 115.54 o
5 19 3 2914.76 2690.33 165.05 o
7 19 3 2400.80 2558.29 239.32 o
0 20 3 46291.60 46313.30 668.46 o
2 20 3 33696.80 33175.20 354.86 o
4 20 3 34229.70 32853.40 470.39 o
6 20 3 19516.20 18617.70 528.16 o
8 20 3 16293.90 15737.60 627.19 o
1 21 3 35115.70 36063.60 404.38 o
3 21 3 29261.00 28108.20 396.12 o
5 21 3 23552.60 22620.20 478.65 o
7 21 3 14972.50 14227.40 511.66 o
0 22 3 3867.49 3688.89 156.80 o
2 22 3 4049.15 3977.73 140.29 o
4 22 3 2988.14 2649.07 173.30 o
6 22 3 2241.04 2310.71 231.07 o
1 23 3 2801.55 2979.17 123.79 o
3 23 3 2460.35 2302.46 181.56 o
5 23 3 1634.39 1312.15 198.06 o
7 23 3 1127.93 1023.32 231.07 o
0 24 3 6924.38 7460.30 321.85 o
2 24 3 10237.70 10348.70 313.60 o
4 24 3 5468.20 5553.96 305.34 o
6 24 3 6525.49 5025.80 305.34 o
1 25 3 31776.90 32721.30 519.91 o
3 25 3 28533.90 29684.40 709.72 o
5 25 3 20974.40 20416.80 585.93 o
0 26 3 18432.30 19178.90 536.42 o
2 26 3 18208.20 19542.00 528.16 o
4 26 3 14541.70 14838.10 478.65 o
6 26 3 11295.00 10852.10 462.14 o
1 27 3 3890.70 4250.06 231.07 o
3 27 3 3256.31 3301.02 247.58 o
5 27 3 2581.67 2558.29 255.83 o
0 28 3 355.39 264.08 165.05 <
2 28 3 1177.97 1229.63 165.05 o
4 28 3 244.18 255.83 181.56 <
1 29 3 11793.70 11974.40 363.11 o
3 29 3 10117.50 10777.80 404.38 o
0 30 3 20395.10 21910.50 783.99 o
2 30 3 17945.80 19187.20 536.42 o
1 31 3 7237.17 6643.30 338.35 o
2 0 4 373783.00 376044.00 3020.43 o
4 0 4 407420.00 424618.00 3672.38 o
6 0 4 177146.00 182282.00 2195.18 o
8 0 4 146363.00 142612.00 2871.89 o
10 0 4 64651.40 64155.30 2772.86 o
1 1 4 38.59 90.78 16.51 o
3 1 4 70.70 107.28 8.25 o
5 1 4 34.91 66.02 16.51 o
7 1 4 72.93 33.01 41.26 <
9 1 4 25.89 16.51 132.04 <
0 2 4 1873.36 1939.35 66.02 o
2 2 4 1410.59 1394.68 16.51 o
4 2 4 933.82 1056.33 24.76 o
6 2 4 352.53 404.38 33.01 o
8 2 4 573.05 610.69 82.53 o
10 2 4 162.26 198.06 156.80 <
1 3 4 4037.47 4406.86 41.26 o
3 3 4 4872.07 5314.64 41.26 o
5 3 4 2194.65 2376.73 49.52 o
7 3 4 3218.81 3581.61 99.03 o
9 3 4 1058.31 1213.12 198.06 o
0 4 4 1103.81 1328.66 33.01 o
2 4 4 1083.82 1015.06 16.51 o
4 4 4 377.33 379.62 16.51 o
6 4 4 294.00 313.60 33.01 o
8 4 4 163.54 181.56 66.02 <
10 4 4 77.56 16.51 156.80 <
1 5 4 470506.00 452933.00 2624.31 o
3 5 4 370922.00 376539.00 2178.67 o
5 5 4 230226.00 232590.00 1766.04 o
7 5 4 154487.00 155899.00 1658.76 o
9 5 4 83814.60 82418.20 2434.50 o
0 6 4 64.95 115.54 16.51 o
2 6 4 1822.38 1865.08 24.76 o
4 6 4 37.18 99.03 16.51 o
6 6 4 831.29 817.00 41.26 o
8 6 4 53.34 82.53 74.27 <
10 6 4 275.83 90.78 156.80 <
1 7 4 4342.90 4118.02 41.26 o
3 7 4 3483.36 3466.07 41.26 o
5 7 4 1902.81 1931.10 49.52 o
7 7 4 1221.20 1155.36 66.02 o
9 7 4 551.06 858.27 198.06 o
0 8 4 44666.40 45025.90 371.36 o
2 8 4 3497.26 3886.95 41.26 o
4 8 4 26334.60 26771.30 214.57 o
6 8 4 3954.34 4175.79 90.78 o
8 8 4 10687.80 10678.80 412.63 o
1 9 4 586.47 503.40 24.76 o
3 9 4 461.39 462.14 24.76 o
5 9 4 404.77 445.64 33.01 o
7 9 4 250.23 214.57 57.77 o
9 9 4 179.33 214.57 173.30 <
0 10 4 343981.00 337859.00 2748.10 o
2 10 4 250166.00 248319.00 1378.18 o
4 10 4 220697.00 223124.00 1592.74 o
6 10 4 124390.00 123004.00 1295.65 o
8 10 4 90094.00 90332.40 2632.56 o
1 11 4 2885.06 2690.33 41.26 o
3 11 4 1775.57 1766.04 41.26 o
5 11 4 2250.32 2228.19 66.02 o
7 11 4 646.59 701.47 82.53 o
9 11 4 941.06 1204.87 231.07 o
0 12 4 12744.20 12585.10 140.29 o
2 12 4 5876.45 5842.80 66.02 o
4 12 4 7602.18 7419.04 99.03 o
6 12 4 2841.10 2863.63 99.03 o
8 12 4 2524.74 2096.15 247.58 o
1 13 4 35041.90 34644.20 239.32 o
3 13 4 32254.40 31945.60 264.08 o
5 13 4 20618.00 20392.00 247.58 o
7 13 4 17110.20 17041.50 354.86 o
9 13 4 8636.55 8079.24 495.15 o
0 14 4 1176.45 1188.37 57.77 o
2 14 4 493.46 462.14 33.01 o
4 14 4 746.06 693.21 49.52 o
6 14 4 362.60 396.12 74.27 o
8 14 4 290.99 -16.51 173.30 <
1 15 4 145952.00 143396.00 973.80 o
3 15 4 121463.00 118152.00 940.79 o
5 15 4 89843.50 88467.30 899.53 o
7 15 4 59352.90 60854.30 1642.26 o
9 15 4 38475.20 37631.60 1171.86 o
0 16 4 1396.31 1477.21 74.27 o
2 16 4 11756.00 11462.80 140.29 o
4 16 4 1179.95 1039.82 66.02 o
6 16 4 5550.06 5487.94 181.56 o
8 16 4 534.57 651.95 231.07 <
1 17 4 8611.76 8566.14 115.54 o
3 17 4 7354.52 6981.65 123.79 o
5 17 4 4984.77 4448.12 140.29 o
7 17 4 3345.11 3664.13 305.34 o
0 18 4 57942.70 58271.20 734.48 o
2 18 4 38779.60 37870.90 379.62 o
4 18 4 42499.70 41229.70 486.90 o
6 18 4 22558.00 21613.40 602.44 o
8 18 4 20436.30 19352.20 750.98 o
1 19 4 473.31 552.92 49.52 o
3 19 4 436.19 305.34 74.27 o
5 19 4 451.50 519.91 107.28 o
7 19 4 293.86 313.60 165.05 <
0 20 4 51027.80 51727.00 841.76 o
2 20 4 53287.50 52593.50 585.93 o
4 20 4 38834.80 38077.20 569.43 o
6 20 4 31477.90 30996.60 858.27 o
1 21 4 6272.15 6346.21 148.55 o
3 21 4 4743.21 4637.93 165.05 o
5 21 4 4331.14 4538.90 272.33 o
7 21 4 1982.39 2030.13 239.32 o
0 22 4 5280.40 5380.66 206.31 o
2 22 4 6377.12 6486.50 165.05 o
4 22 4 3945.63 3598.11 214.57 o
6 22 4 3574.58 3086.45 264.08 o
1 23 4 48345.00 50084.70 651.95 o
3 23 4 42079.30 39868.10 709.72 o
5 23 4 33127.40 31400.90 767.49 o
0 24 4 334.61 396.12 132.04 o
2 24 4 1903.38 1997.12 156.80 o
4 24 4 272.32 420.88 173.30 <
6 24 4 1460.12 1378.18 239.32 o
1 25 4 13330.00 14161.40 313.60 o
3 25 4 11740.80 12816.20 379.62 o
5 25 4 9680.03 9572.95 404.38 o
0 26 4 3496.60 3680.64 305.34 o
2 26 4 6289.30 6973.40 288.84 o
4 26 4 2615.97 2871.89 255.83 o
1 27 4 3637.63 4332.59 231.07 o
3 27 4 2898.66 2995.67 222.82 o
5 27 4 2755.78 2682.08 255.83 o
0 28 4 39257.10 40363.20 990.31 o
2 28 4 38479.20 40487.00 800.50 o
4 28 4 31444.80 32118.90 775.74 o
1 29 4 1227.89 1122.35 189.81 o
3 29 4 1010.14 949.04 189.81 o
0 30 4 1584.15 1790.80 264.08 o
2 30 4 1144.39 1254.39 222.82 o
1 31 4 3286.70 3424.81 239.32 o
1 1 5 7368.42 6989.91 123.79 o
3 1 5 7078.61 7031.17 57.77 o
5 1 5 4426.57 4406.86 66.02 o
7 1 5 3381.65 3581.61 99.03 o
9 1 5 1500.56 2228.19 255.83 o
0 2 5 28485.60 26895.00 594.18 o
2 2 5 24545.90 24650.40 189.81 o
4 2 5 18977.70 19203.70 148.55 o
6 2 5 11506.30 11578.30 148.55 o
8 2 5 7876.04 7526.32 288.84 o
1 3 5 33358.70 32193.20 363.11 o
3 3 5 25947.60 26226.60 181.56 o
5 3 5 19667.80 19830.90 173.30 o
7 3 5 11324.60 11314.20 173.30 o
9 3 5 7465.89 7724.38 420.88 o
0 4 5 2488.08 2500.52 82.53 o
2 4 5 3286.87 3168.98 33.01 o
4 4 5 1902.64 1881.58 33.01 o
6 4 5 1611.95 1658.76 57.77 o
8 4 5 730.02 635.45 123.79 o
1 5 5 11987.90 11933.20 99.03 o
3 5 5 8982.35 9259.36 74.27 o
5 5 5 7355.10 7592.34 90.78 o
7 5 5 3962.06 4291.32 115.54 o
9 5 5 3037.27 3548.59 321.85 o
0 6 5 16603.50 15671.60 173.30 o
2 6 5 15395.00 14887.60 107.28 o
4 6 5 10862.10 10901.60 99.03 o
6 6 5 7738.03 7732.64 115.54 o
8 6 5 3903.61 3985.98 231.07 o
1 7 5 17649.20 17272.60 123.79 o
3 7 5 13364.40 13468.20 99.03 o
5 7 5 10141.80 10290.90 115.54 o
7 7 5 5649.22 5611.73 132.04 o
9 7 5 3857.50 3622.87 313.60 o
0 8 5 42405.90 41675.40 379.62 o
2 8 5 31198.60 30798.50 198.06 o
4 8 5 27697.50 27538.80 214.57 o
6 8 5 15501.60 15498.30 189.81 o
8 8 5 10987.30 10489.00 363.11 o
1 9 5 460.52 511.66 24.76 o
3 9 5 288.91 297.09 24.76 o
5 9 5 289.23 363.11 33.01 o
7 9 5 153.85 305.34 66.02 o
9 9 5 110.97 82.53 156.80 <
0 10 5 42170.60 42360.30 379.62 o
2 10 5 38055.10 37681.10 247.58 o
4 10 5 28996.40 29255.30 239.32 o
6 10 5 18885.60 18997.40 239.32 o
8 10 5 12783.40 12849.20 478.65 o
1 11 5 20614.80 20210.50 140.29 o
3 11 5 17186.10 16860.00 148.55 o
5 11 5 11086.30 10984.10 140.29 o
7 11 5 7454.79 7204.47 222.82 o
9 11 5 3821.05 3730.15 338.35 o
0 12 5 7898.73 7848.17 107.28 o
2 12 5 4217.28 4373.85 66.02 o
4 12 5 5559.82 5595.23 82.53 o
6 12 5 2415.11 2426.25 90.78 o
8 12 5 2502.99 2723.34 280.59 o
1 13 5 31845.80 31392.70 239.32 o
3 13 5 27044.10 26738.30 231.07 o
5 13 5 17581.70 17355.10 206.31 o
7 13 5 12423.10 12189.00 354.86 o
9 13 5 6342.96 6610.29 462.14 o
0 14 5 1176.58 1114.09 57.77 o
2 14 5 1099.48 1130.60 41.26 o
4 14 5 895.06 866.52 49.52 o
6 14 5 853.26 825.26 82.53 o
8 14 5 512.34 594.18 206.31 <
1 15 5 63929.20 63008.20 462.14 o
3 15 5 52637.90 50967.70 429.13 o
5 15 5 39574.10 38151.50 404.38 o
7 15 5 25348.60 23561.00 594.18 o
0 16 5 12546.40 12923.50 189.81 o
2 16 5 16510.80 16711.40 173.30 o
4 16 5 8883.93 8722.94 140.29 o
6 16 5 8652.63 8458.86 247.58 o
8 16 5 3729.63 4068.51 371.36 o
1 17 5 885.17 965.55 49.52 o
3 17 5 997.85 957.29 57.77 o
5 17 5 606.82 569.43 82.53 o
7 17 5 777.76 684.96 165.05 o
0 18 5 18950.80 19129.40 288.84 o
2 18 5 16663.70 16447.30 189.81 o
4 18 5 13331.10 12907.00 206.31 o
6 18 5 9187.22 9251.10 305.34 o
8 18 5 5479.35 5265.12 420.88 o
1 19 5 5058.49 4802.98 107.28 o
3 19 5 4549.02 4258.31 123.79 o
5 19 5 3260.24 2682.08 165.05 o
7 19 5 2572.53 2484.02 272.33 o
0 20 5 68391.50 67918.50 998.56 o
2 20 5 53819.20 51900.30 544.67 o
4 20 5 51107.60 50835.70 651.95 o
6 20 5 31415.00 29816.40 684.96 o
1 21 5 7055.84 7328.26 156.80 o
3 21 5 5752.86 5842.80 181.56 o
5 21 5 4993.36 4935.02 255.83 o
7 21 5 2903.97 2459.26 288.84 o
0 22 5 201.35 74.27 99.03 <
2 22 5 172.53 264.08 82.53 o
4 22 5 189.99 57.77 123.79 <
6 22 5 196.69 165.05 181.56 <
1 23 5 6382.40 6767.09 181.56 o
3 23 5 5681.45 6131.64 247.58 o
5 23 5 4080.26 3928.21 255.83 o
0 24 5 5922.01 6106.88 255.83 o
2 24 5 8902.38 9391.40 280.59 o
4 24 5 4561.59 4068.51 247.58 o
6 24 5 5507.17 4926.77 321.85 o
1 25 5 44933.20 46445.30 742.73 o
3 25 5 40484.90 41081.20 817.00 o
5 25 5 30786.90 29535.90 792.24 o
0 26 5 2314.79 2665.57 239.32 o
2 26 5 2581.61 2451.01 189.81 o
4 26 5 1920.81 1741.29 214.57 o
1 27 5 236.54 330.10 148.55 <
3 27 5 229.35 321.85 173.30 <
0 28 5 754.94 817.00 189.81 o
2 28 5 1748.90 2170.42 239.32 o
4 28 5 571.87 618.94 239.32 <
1 29 5 6916.69 7064.18 313.60 o
3 29 5 5888.53 5809.79 346.61 o
0 30 5 28714.50 27967.90 924.28 o
0 0 6 28256.50 27703.80 1072.83 o
2 0 6 13427.20 12717.20 206.31 o
4 0 6 15252.50 15159.90 181.56 o
6 0 6 5649.86 5628.24 132.04 o
8 0 6 4888.89 5908.82 396.12 o
1 1 6 148646.00 143330.00 2038.38 o
3 1 6 114040.00 115049.00 825.26 o
5 1 6 87425.80 89523.60 684.96 o
7 1 6 50292.50 49523.50 618.94 o
9 1 6 36441.20 36996.20 1196.62 o
0 2 6 29261.30 28619.80 775.74 o
2 2 6 14124.20 13922.00 156.80 o
4 2 6 16310.70 16100.70 132.04 o
6 2 6 5977.56 5818.05 99.03 o
8 2 6 5420.36 5776.78 272.33 o
1 3 6 19068.30 19112.90 280.59 o
3 3 6 14330.60 14417.20 115.54 o
5 3 6 9927.35 10059.90 99.03 o
7 3 6 5681.88 5628.24 132.04 o
9 3 6 3508.85 4208.80 330.10 o
0 4 6 150531.00 148769.00 2715.09 o
2 4 6 235245.00 230263.00 1873.33 o
4 4 6 105221.00 107555.00 759.23 o
6 4 6 110038.00 109082.00 998.56 o
8 4 6 45666.70 45372.50 1015.06 o
1 5 6 12183.70 11850.70 156.80 o
3 5 6 9678.50 9779.27 82.53 o
5 5 6 5898.73 6090.38 74.27 o
7 5 6 3840.96 4134.53 123.79 o
9 5 6 1930.41 2137.41 247.58 o
0 6 6 64372.00 63841.70 1039.82 o
2 6 6 81700.40 81997.30 643.70 o
4 6 6 46772.00 48203.10 354.86 o
6 6 6 42900.50 43309.40 429.13 o
8 6 6 22056.60 23577.50 602.44 o
1 7 6 9616.59 9416.16 90.78 o
3 7 6 8744.87 8780.71 82.53 o
5 7 6 4260.44 4382.10 74.27 o
7 7 6 3824.64 4076.76 132.04 o
9 7 6 1169.93 1419.44 222.82 o
0 8 6 7492.64 7617.10 115.54 o
2 8 6 12819.40 12824.50 107.28 o
4 8 6 5577.66 5801.54 74.27 o
6 8 6 6347.67 6313.20 115.54 o
8 8 6 2647.79 3069.95 214.57 o
1 9 6 184003.00 179666.00 1130.60 o
3 9 6 147162.00 145360.00 973.80 o
5 9 6 113278.00 111583.00 940.79 o
7 9 6 67891.70 67002.40 1163.61 o
9 9 6 47772.80 47774.00 1510.22 o
0 10 6 1718.85 1691.77 57.77 o
2 10 6 3856.22 3944.72 57.77 o
4 10 6 1306.53 1378.18 41.26 o
6 10 6 1914.91 2030.13 74.27 o
8 10 6 596.17 561.17 148.55 o
1 11 6 31051.10 30831.50 214.57 o
3 11 6 26832.50 27332.40 214.57 o
5 11 6 19765.70 19715.30 214.57 o
7 11 6 14382.10 14994.90 363.11 o
9 11 6 9584.47 9374.89 503.40 o
0 12 6 6777.37 6808.35 107.28 o
2 12 6 661.09 693.21 33.01 o
4 12 6 4292.78 4200.55 74.27 o
6 12 6 462.13 594.18 74.27 o
8 12 6 1514.55 1501.96 206.31 o
1 13 6 6084.62 6181.16 82.53 o
3 13 6 5002.38 5034.05 74.27 o
5 13 6 4018.47 3820.93 99.03 o
7 13 6 2583.07 2838.88 189.81 o
0 14 6 122476.00 121799.00 1163.61 o
2 14 6 137552.00 136951.00 949.04 o
4 14 6 90800.80 87831.90 750.98 o
6 14 6 77643.00 76055.50 1163.61 o
8 14 6 43063.40 41460.80 1229.63 o
1 15 6 198.23 156.80 33.01 o
3 15 6 150.85 189.81 41.26 o
5 15 6 192.48 123.79 66.02 <
7 15 6 120.94 41.26 115.54 <
0 16 6 10976.20 10687.00 165.05 o
2 16 6 7098.09 7196.22 107.28 o
4 16 6 8180.22 7666.62 140.29 o
6 16 6 4588.46 4274.82 214.57 o
8 16 6 4430.50 4786.48 396.12 o
1 17 6 407.96 470.39 41.26 o
3 17 6 332.53 462.14 57.77 o
5 17 6 423.78 569.43 107.28 o
7 17 6 224.32 206.31 148.55 <
0 18 6 4371.25 4217.05 123.79 o
2 18 6 2579.56 2541.78 82.53 o
4 18 6 3254.83 3201.99 132.04 o
6 18 6 1593.51 1246.13 165.05 o
1 19 6 88515.20 85719.20 808.75 o
3 19 6 77408.40 77078.80 750.98 o
5 19 6 59359.40 57025.10 850.01 o
7 19 6 42365.70 42434.60 1295.65 o
0 20 6 2729.59 2706.84 140.29 o
2 20 6 8.29 -8.25 57.77 <
4 20 6 2118.78 2096.15 148.55 o
6 20 6 19.88 123.79 148.55 <
1 21 6 728.06 817.00 74.27 o
3 21 6 714.52 916.03 115.54 o
5 21 6 596.47 412.63 140.29 <
0 22 6 412.13 470.39 123.79 o
2 22 6 1993.31 1980.61 132.04 o
4 22 6 409.51 495.15 140.29 o
6 22 6 1575.54 1543.23 264.08 o
1 23 6 1164.22 1023.32 115.54 o
3 23 6 1269.37 1163.61 140.29 o
5 23 6 727.49 907.78 214.57 o
0 24 6 56462.50 58741.60 1089.34 o
2 24 6 50015.90 51958.00 783.99 o
4 24 6 43992.70 44794.80 973.80 o
1 25 6 2881.92 2748.10 156.80 o
3 25 6 2939.16 2970.92 206.31 o
5 25 6 1933.25 1295.65 239.32 o
0 26 6 1699.02 1848.57 206.31 o
2 26 6 1166.41 1188.37 173.30 o
4 26 6 1224.83 1345.17 231.07 o
1 27 6 2709.56 3003.93 214.57 o
3 27 6 2564.54 2294.21 255.83 o
0 28 6 839.79 783.99 231.07 o
2 28 6 126.54 66.02 181.56 <
1 29 6 27408.60 29230.50 676.71 o
1 1 7 37489.30 35337.40 536.41 o
3 1 7 32164.00 32300.50 297.09 o
5 1 7 21723.40 21976.50 214.57 o
7 1 7 15086.80 15118.70 338.35 o
9 1 7 8159.15 8203.03 330.10 o
0 2 7 1780.76 1724.78 140.29 o
2 2 7 1874.05 1799.06 90.78 o
4 2 7 1222.63 1303.90 41.26 o
6 2 7 1214.33 1204.87 57.77 o
8 2 7 612.65 709.72 107.28 o
1 3 7 334.85 346.61 49.52 o
3 3 7 370.99 429.13 33.01 o
5 3 7 250.88 239.32 33.01 o
7 3 7 319.14 478.65 90.78 o
9 3 7 196.39 288.84 132.04 <
0 4 7 16647.30 16117.20 354.86 o
2 4 7 17037.10 16463.80 231.07 o
4 4 7 11709.40 11801.10 123.79 o
6 4 7 8724.20 8483.62 132.04 o
8 4 7 4766.15 4935.02 206.31 o
1 5 7 4971.66 4877.25 107.28 o
3 5 7 3731.38 3952.97 66.02 o
5 5 7 3153.02 3301.02 66.02 o
7 5 7 1639.29 1848.57 132.04 o
9 5 7 1326.32 1394.68 173.30 o
0 6 7 56724.80 52345.90 924.28 o
2 6 7 52419.30 51446.40 486.90 o
4 6 7 39442.50 39133.60 321.85 o
6 6 7 28098.80 27868.90 338.35 o
8 6 7 16413.40 15465.30 404.38 o
1 7 7 4873.57 5017.55 107.28 o
3 7 7 4370.43 4571.91 74.27 o
5 7 7 2868.80 2871.89 74.27 o
7 7 7 2372.71 2112.65 148.55 o
9 7 7 1361.53 1402.93 231.07 o
0 8 7 1092.76 1114.09 74.27 o
2 8 7 548.03 577.68 33.01 o
4 8 7 712.86 750.98 41.26 o
6 8 7 323.26 288.84 57.77 o
8 8 7 273.24 387.87 156.80 <
1 9 7 3645.89 3738.40 66.02 o
3 9 7 2747.31 2731.59 57.77 o
5 9 7 2353.99 2318.97 74.27 o
7 9 7 1113.07 1138.85 132.04 o
0 10 7 15766.20 15457.00 222.82 o
2 10 7 13922.50 13889.00 132.04 o
4 10 7 11320.40 11429.80 132.04 o
6 10 7 7233.06 7526.32 173.30 o
8 10 7 5243.68 5785.04 305.34 o
1 11 7 59327.50 58279.50 445.64 o
3 11 7 51016.70 49936.20 404.38 o
5 11 7 36501.40 35766.50 387.87 o
7 11 7 25450.40 25822.20 528.16 o
0 12 7 6842.83 6800.10 115.54 o
2 12 7 9251.78 9275.86 99.03 o
4 12 7 5012.92 4959.78 99.03 o
6 12 7 5199.96 4910.27 189.81 o
8 12 7 2418.63 2170.42 214.57 o
1 13 7 1514.46 1526.72 49.52 o
3 13 7 1389.36 1435.94 57.77 o
5 13 7 783.19 792.24 74.27 o
7 13 7 631.04 825.26 132.04 o
0 14 7 177.37 272.33 49.52 o
2 14 7 153.82 206.31 41.26 o
4 14 7 138.52 115.54 49.52 <
6 14 7 157.89 272.33 99.03 <
8 14 7 92.11 132.04 181.56 <
1 15 7 21996.30 21638.20 206.31 o
3 15 7 18417.00 18568.20 198.06 o
5 15 7 14330.70 14169.60 313.60 o
7 15 7 9257.08 9160.33 363.11 o
0 16 7 45708.30 45116.70 544.67 o
2 16 7 49580.60 49408.00 437.39 o
4 16 7 34346.10 33290.80 387.87 o
6 16 7 29106.90 27522.20 519.91 o
1 17 7 9471.49 8954.01 132.04 o
3 17 7 7733.70 7980.21 156.80 o
5 17 7 6527.44 6313.20 239.32 o
7 17 7 3874.98 4101.52 288.84 o
0 18 7 1316.17 1188.37 90.78 o
2 18 7 1197.67 1246.13 82.53 o
4 18 7 902.34 833.51 115.54 o
6 18 7 653.91 627.19 156.80 o
1 19 7 3606.91 3523.84 123.79 o
3 19 7 3316.98 3383.54 140.29 o
5 19 7 2433.68 2277.70 173.30 o
0 20 7 23877.70 23024.60 470.39 o
2 20 7 17097.10 17454.10 297.09 o
4 20 7 18238.00 18807.60 379.62 o
6 20 7 10224.40 9317.12 404.38 o
1 21 7 32648.20 32209.70 495.15 o
3 21 7 28150.90 28091.70 486.90 o
5 21 7 23367.60 23098.90 552.92 o
0 22 7 7577.38 7864.68 288.84 o
2 22 7 7545.84 7633.61 222.82 o
4 22 7 5889.77 6387.47 239.32 o
1 23 7 528.78 660.20 107.28 o
3 23 7 474.79 602.44 132.04 o
5 23 7 314.93 255.83 214.57 <
0 24 7 6389.88 6923.89 288.84 o
2 24 7 8816.43 8896.25 264.08 o
4 24 7 5085.10 4860.75 297.09 o
1 25 7 14531.00 14895.80 288.84 o
3 25 7 13285.30 13724.00 412.63 o
0 26 7 18846.00 18890.10 528.16 o
2 26 7 18351.90 19509.00 486.90 o
1 27 7 4946.99 5281.63 255.83 o
0 28 7 155.47 -8.25 206.31 <
0 0 8 262883.00 261919.00 9185.08 o
2 0 8 163233.00 163252.00 3325.78 o
4 0 8 185784.00 185121.00 2690.33 o
6 0 8 93000.60 92420.30 1782.55 o
8 0 8 84506.40 83779.90 2261.20 o
1 1 8 118.64 99.03 82.53 <
3 1 8 76.01 132.04 49.52 <
5 1 8 78.50 99.03 49.52 <
7 1 8 31.30 66.02 123.79 <
0 2 8 1047.80 990.31 173.30 o
2 2 8 323.94 420.88 57.77 o
4 2 8 807.80 998.56 66.02 o
6 2 8 211.85 577.68 99.03 o
8 2 8 522.88 1105.84 173.30 o
1 3 8 2249.52 2343.72 115.54 o
3 3 8 2614.53 2715.09 82.53 o
5 3 8 1331.68 1411.19 66.02 o
7 3 8 1908.15 1790.80 181.56 o
0 4 8 176.15 90.78 90.78 <
2 4 8 681.88 701.47 66.02 o
4 4 8 143.44 99.03 41.26 <
6 4 8 352.88 404.38 82.53 o
8 4 8 90.58 288.84 156.80 <
1 5 8 192810.00 183636.00 2616.06 o
3 5 8 167938.00 167205.00 1922.84 o
5 5 8 117903.00 117665.00 1287.40 o
7 5 8 86668.80 85067.30 1600.99 o
0 6 8 212.07 156.80 66.02 <
2 6 8 126.02 189.81 49.52 o
4 6 8 101.46 115.54 41.26 <
6 6 8 82.89 181.56 90.78 <
8 6 8 33.62 -140.29 132.04 <
1 7 8 1478.98 1477.21 74.27 o
3 7 8 1282.45 1237.88 66.02 o
5 7 8 842.15 1072.83 82.53 o
7 7 8 578.09 701.47 140.29 o
0 8 8 16019.50 15465.30 330.10 o
2 8 8 2209.16 2244.69 74.27 o
4 8 8 11888.80 11933.20 165.05 o
6 8 8 1824.38 2112.65 156.80 o
8 8 8 6102.36 6214.17 354.86 o
1 9 8 676.02 668.46 57.77 o
3 9 8 548.20 536.42 49.52 o
5 9 8 462.46 453.89 90.78 o
7 9 8 267.20 156.80 140.29 <
0 10 8 156642.00 145138.00 2318.97 o
2 10 8 121959.00 120611.00 1303.90 o
4 10 8 114676.00 115272.00 1213.12 o
6 10 8 69934.40 70798.60 1221.38 o
8 10 8 54645.50 53550.80 1419.44 o
1 11 8 665.94 643.70 57.77 o
3 11 8 393.63 412.63 49.52 o
5 11 8 600.24 552.92 90.78 o
7 11 8 136.73 90.78 148.55 <
0 12 8 5529.22 5496.20 173.30 o
2 12 8 2966.09 2937.91 82.53 o
4 12 8 3752.76 3796.17 132.04 o
6 12 8 1521.68 1460.70 156.80 o
1 13 8 16171.50 16282.30 198.06 o
3 13 8 15357.60 15201.20 206.31 o
5 13 8 10372.90 10266.20 280.59 o
7 13 8 9398.67 8681.68 313.60 o
0 14 8 1326.37 1501.96 107.28 o
2 14 8 588.26 585.93 57.77 o
4 14 8 900.19 883.02 99.03 o
6 14 8 329.82 181.56 115.54 <
1 15 8 75823.40 74842.40 693.21 o
3 15 8 65565.40 65756.30 808.75 o
5 15 8 51072.10 49416.20 833.51 o
7 15 8 35826.10 35667.50 850.01 o
0 16 8 640.03 478.65 90.78 o
2 16 8 5302.83 5397.17 132.04 o
4 16 8 486.93 536.42 115.54 o
6 16 8 2758.92 2599.55 189.81 o
1 17 8 4404.83 4580.16 123.79 o
3 17 8 3819.39 4052.00 156.80 o
5 17 8 2656.70 2360.23 181.56 o
0 18 8 30478.60 29478.10 561.17 o
2 18 8 20446.90 20425.10 305.34 o
4 18 8 23637.80 24072.70 528.16 o
6 18 8 12852.20 11933.20 470.39 o
1 19 8 463.85 610.69 90.78 o
3 19 8 462.84 750.98 123.79 o
5 19 8 295.18 107.28 165.05 <
0 20 8 27407.60 27051.80 569.43 o
2 20 8 28770.30 28710.60 486.90 o
4 20 8 21843.00 22537.70 495.15 o
1 21 8 3387.67 3383.54 148.55 o
3 21 8 2569.60 2756.35 181.56 o
5 21 8 2385.70 2533.53 280.59 o
0 22 8 2410.89 2731.59 198.06 o
2 22 8 3006.85 3515.58 165.05 o
4 22 8 1838.66 2013.62 214.57 o
1 23 8 27797.00 27530.50 420.88 o
3 23 8 24652.00 25880.00 544.67 o
0 24 8 314.42 585.93 156.80 o
2 24 8 979.26 792.24 132.04 o
4 24 8 233.14 297.09 206.31 <
1 25 8 7057.87 7014.66 231.07 o
3 25 8 6370.01 6197.66 297.09 o
0 26 8 1854.62 1691.77 206.31 o
2 26 8 3581.79 3886.95 198.06 o
1 1 9 2295.12 2219.94 132.04 o
3 1 9 2023.37 2038.38 123.79 o
5 1 9 1174.97 1411.19 115.54 o
7 1 9 843.22 907.78 173.30 o
0 2 9 25623.20 25979.00 767.49 o
2 2 9 22726.60 21993.00 404.38 o
4 2 9 19090.30 18774.50 354.86 o
6 2 9 12600.50 12675.90 396.12 o
8 2 9 9252.75 8392.84 354.86 o
1 3 9 33189.20 33398.10 775.74 o
3 3 9 27461.20 26928.10 437.39 o
5 3 9 21111.40 20804.70 346.61 o
7 3 9 13293.00 12675.90 412.63 o
0 4 9 399.87 585.93 173.30 o
2 4 9 473.46 503.40 74.27 o
4 4 9 310.03 354.86 82.53 o
6 4 9 262.43 651.95 165.05 o
8 4 9 181.52 305.34 173.30 <
1 5 9 9621.56 9531.69 313.60 o
3 5 9 7715.48 7988.47 189.81 o
5 5 9 6225.37 6461.74 165.05 o
7 5 9 3648.61 3994.23 255.83 o
0 6 9 3073.94 3325.78 231.07 o
2 6 9 3121.45 3210.24 115.54 o
4 6 9 2097.56 1873.33 99.03 o
6 6 9 1676.70 1889.83 189.81 o
8 6 9 726.92 701.47 165.05 o
1 7 9 13991.70 13534.20 305.34 o
3 7 9 11877.90 12015.70 255.83 o
5 7 9 9774.37 9795.77 231.07 o
7 7 9 6462.12 6313.20 272.33 o
0 8 9 31874.60 31136.90 668.46 o
2 8 9 26026.00 25343.60 387.87 o
4 8 9 23407.20 22983.30 371.36 o
6 8 9 14704.70 14920.60 396.12 o
1 9 9 728.73 775.74 82.53 o
3 9 9 749.10 618.94 82.53 o
5 9 9 473.86 264.08 99.03 <
7 9 9 567.86 709.72 173.30 o
0 10 9 26216.50 24163.50 503.40 o
2 10 9 23917.40 24072.70 420.88 o
4 10 9 19777.80 19566.80 313.60 o
6 10 9 13663.00 14062.30 429.13 o
1 11 9 2475.62 2657.32 132.04 o
3 11 9 2250.26 2277.70 107.28 o
5 11 9 1539.69 1815.56 165.05 o
7 11 9 1148.17 1435.94 198.06 o
0 12 9 9082.36 8846.73 305.34 o
2 12 9 6444.82 6304.95 173.30 o
4 12 9 7124.70 7229.23 206.31 o
6 12 9 4155.17 4324.33 264.08 o
1 13 9 19399.00 19368.70 313.60 o
3 13 9 17420.70 16983.70 297.09 o
5 13 9 12592.80 12708.90 354.86 o
7 13 9 9565.70 9630.72 387.87 o
0 14 9 1857.85 1675.27 148.55 o
2 14 9 1895.78 1832.07 107.28 o
4 14 9 1431.14 1163.61 123.79 o
6 14 9 1348.54 1592.74 181.56 o
1 15 9 35349.50 34759.70 462.14 o
3 15 9 30647.20 29923.70 478.65 o
5 15 9 24693.10 24122.20 544.67 o
0 16 9 1415.16 1625.75 165.05 o
2 16 9 2558.38 2748.10 132.04 o
4 16 9 1075.04 990.31 156.80 o
6 16 9 1496.00 1534.97 231.07 o
1 17 9 4413.67 4258.31 156.80 o
3 17 9 4183.08 4126.27 222.82 o
5 17 9 3056.24 2706.84 264.08 o
0 18 9 11783.00 11446.30 396.12 o
2 18 9 10802.30 10687.00 321.85 o
4 18 9 9009.61 8747.70 354.86 o
1 19 9 2414.42 2211.68 181.56 o
3 19 9 2266.97 2120.90 189.81 o
5 19 9 1771.84 1534.97 247.58 o
0 20 9 41453.70 41485.60 1039.82 o
2 20 9 33675.40 33885.00 643.70 o
4 20 9 32956.20 32803.90 850.01 o
1 21 9 1411.78 1832.07 173.30 o
3 21 9 1105.55 1336.91 247.58 o
0 22 9 2098.44 1848.57 247.58 o
2 22 9 2006.86 2195.18 214.57 o
4 22 9 1772.11 1510.22 264.08 o
1 23 9 5537.96 5900.57 313.60 o
3 23 9 4965.41 5380.66 354.86 o
0 24 9 2216.19 2533.53 346.61 o
2 24 9 3813.21 4035.50 280.59 o
1 25 9 33713.40 33167.00 767.49 o
0 0 10 10683.40 11314.20 610.69 o
2 0 10 6527.96 6758.84 379.62 o
4 0 10 7732.51 8425.85 363.11 o
6 0 10 3726.87 4200.55 363.11 o
1 1 10 55063.60 56604.20 1089.34 o
3 1 10 45875.40 47023.00 924.28 o
5 1 10 38594.10 39405.90 709.72 o
7 1 10 24449.50 24072.70 618.94 o
0 2 10 6618.91 7039.42 330.10 o
2 2 10 3318.60 3911.71 198.06 o
4 2 10 4760.62 5042.31 181.56 o
6 2 10 1814.88 2005.37 198.06 o
1 3 10 5381.15 5570.47 239.32 o
3 3 10 4485.87 4538.90 165.05 o
5 3 10 3483.49 3383.54 181.56 o
7 3 10 2186.45 2343.72 231.07 o
0 4 10 54024.30 52832.80 2038.38 o
2 4 10 82294.30 80974.00 1287.40 o
4 4 10 41598.50 42517.10 643.70 o
6 4 10 48857.90 47237.60 973.80 o
1 5 10 6860.18 7443.80 338.35 o
3 5 10 5988.93 6255.43 198.06 o
5 5 10 4299.61 4241.81 239.32 o
7 5 10 3004.89 3094.71 247.58 o
0 6 10 29150.80 30575.70 1287.40 o
2 6 10 36083.30 35543.70 676.71 o
4 6 10 22625.50 22958.60 396.12 o
6 6 10 22360.10 22975.10 577.68 o
1 7 10 2897.78 3069.95 206.31 o
3 7 10 2851.76 2731.59 132.04 o
5 7 10 1521.08 1675.27 165.05 o
7 7 10 1493.11 1716.53 189.81 o
0 8 10 3145.15 2838.88 321.85 o
2 8 10 4915.45 5355.90 214.57 o
4 8 10 2403.91 2343.72 132.04 o
6 8 10 2807.47 3160.73 206.31 o
1 9 10 71107.90 69503.00 1138.85 o
3 9 10 60033.00 60590.20 841.76 o
5 9 10 49917.80 50522.10 1006.81 o
7 9 10 32335.20 32457.30 759.23 o
0 10 10 2492.43 2484.02 156.80 o
2 10 10 3874.01 3697.14 148.55 o
4 10 10 1860.83 2013.62 140.29 o
6 10 10 2167.12 2153.91 214.57 o
1 11 10 14361.00 14136.60 297.09 o
3 11 10 12922.80 13138.10 280.59 o
5 11 10 10312.10 10761.30 330.10 o
0 12 10 3142.26 2838.88 189.81 o
2 12 10 382.58 396.12 82.53 o
4 12 10 2205.08 2426.25 156.80 o
6 12 10 298.27 519.91 165.05 o
1 13 10 2134.78 1881.58 123.79 o
3 13 10 1827.58 1485.46 148.55 o
5 13 10 1539.64 1741.29 181.56 o
0 14 10 54217.00 51528.90 982.05 o
2 14 10 62106.50 61407.20 874.77 o
4 14 10 42303.80 42905.00 841.76 o
6 14 10 38866.10 37970.00 850.01 o
1 15 10 520.54 561.17 107.28 o
3 15 10 337.52 313.60 140.29 <
5 15 10 428.86 313.60 181.56 <
0 16 10 4554.51 4802.98 321.85 o
2 16 10 3104.36 2946.16 189.81 o
4 16 10 3816.12 3408.30 247.58 o
1 17 10 237.78 305.34 140.29 <
3 17 10 207.66 33.01 148.55 <
5 17 10 259.95 148.55 206.31 <
0 18 10 1056.41 1378.18 222.82 o
2 18 10 514.86 379.62 156.80 <
4 18 10 876.93 734.48 231.07 o
1 19 10 41311.50 42211.80 750.98 o
3 19 10 36899.20 37483.10 916.03 o
0 20 10 1088.05 1741.29 313.60 o
2 20 10 29.56 -8.25 189.81 <
4 20 10 886.27 701.47 478.65 <
1 21 10 394.23 379.62 181.56 <
3 21 10 405.29 511.66 231.07 <
0 22 10 338.60 231.07 264.08 <
2 22 10 1422.06 1567.98 247.58 o
1 23 10 217.38 429.13 189.81 <
1 1 11 18687.50 19277.90 528.16 o
3 1 11 16728.70 17379.90 519.91 o
5 1 11 12414.90 13451.70 577.68 o
0 2 11 4341.63 4431.62 288.84 o
2 2 11 4596.17 4192.29 222.82 o
4 2 11 3431.00 3177.23 561.17 o
6 2 11 3251.33 3061.69 247.58 o
1 3 11 2707.36 2673.83 181.56 o
3 3 11 2565.53 2351.98 264.08 o
5 3 11 1912.79 2162.17 297.09 o
0 4 11 9017.17 9812.28 602.44 o
2 4 11 9193.03 8623.91 396.12 o
4 4 11 6823.37 7419.04 412.63 o
6 4 11 5410.22 5760.28 305.34 o
1 5 11 1089.30 1031.57 173.30 o
3 5 11 879.83 1056.33 181.56 o
5 5 11 852.16 1270.89 264.08 o
0 6 11 29997.80 28875.70 1262.64 o
2 6 11 28940.20 28883.90 726.22 o
4 6 11 22891.10 24699.90 767.49 o
6 6 11 17926.00 17602.70 511.66 o
1 7 11 5965.33 6082.13 354.86 o
3 7 11 5546.71 5537.46 338.35 o
5 7 11 4313.32 4365.60 346.61 o
0 8 11 713.83 503.40 214.57 <
2 8 11 1073.62 1056.33 206.31 o
4 8 11 644.50 734.48 156.80 o
6 8 11 876.66 635.45 189.81 o
1 9 11 2633.36 2913.15 255.83 o
3 9 11 2094.28 2492.27 214.57 o
5 9 11 1760.16 2120.90 214.57 o
0 10 11 4617.90 4654.44 478.65 o
2 10 11 3937.60 4151.03 321.85 o
4 10 11 3664.53 3639.37 206.31 o
6 10 11 2341.82 2360.23 231.07 o
1 11 11 36372.80 34974.30 1031.57 o
3 11 11 32366.20 33554.90 841.76 o
5 11 11 24823.60 25285.80 594.18 o
0 12 11 7093.49 6874.37 585.93 o
2 12 11 8662.56 8574.40 379.62 o
4 12 11 5717.26 5529.21 231.07 o
1 13 11 247.43 338.35 214.57 <
3 13 11 224.46 82.53 132.04 <
5 13 11 266.97 206.31 181.56 <
0 14 11 34.19 231.07 173.30 <
2 14 11 36.27 115.54 156.80 <
4 14 11 31.60 99.03 173.30 <
1 15 11 7802.93 8293.81 305.34 o
3 15 11 6725.48 6296.69 387.87 o
0 16 11 31364.30 30856.30 1031.57 o
2 16 11 33492.50 33480.60 726.22 o
4 16 11 24904.20 24798.90 783.99 o
1 17 11 9146.00 8780.71 387.87 o
3 17 11 7853.60 7419.04 429.13 o
0 18 11 197.57 115.54 247.58 <
2 18 11 190.38 214.57 206.31 <
1 19 11 2045.42 2285.96 247.58 o
0 20 11 9200.81 9837.04 618.94 o
2 20 11 6311.75 6948.64 379.62 o
0 0 12 97810.40 100458.00 3746.66 o
2 0 12 63997.40 65814.10 2533.53 o
4 0 12 76301.90 75122.90 4258.31 o
1 1 12 499.94 643.70 140.29 o
3 1 12 416.17 635.45 222.82 <
5 1 12 356.46 519.91 239.32 <
0 2 12 216.67 775.74 264.08 <
2 2 12 313.07 850.01 165.05 o
4 2 12 213.13 1320.41 462.14 <
1 3 12 753.05 932.54 198.06 o
3 3 12 909.62 973.80 239.32 o
5 3 12 505.58 709.72 222.82 o
0 4 12 845.02 759.23 272.33 <
2 4 12 1669.45 1642.26 222.82 o
4 4 12 624.21 552.92 437.39 <
1 5 12 69840.90 71120.40 1939.35 o
3 5 12 63690.40 64823.80 2508.77 o
5 5 12 48036.30 48062.80 1295.65 o
0 6 12 135.97 255.83 214.57 <
2 6 12 11.03 321.85 156.80 <
4 6 12 125.28 74.27 198.06 <
1 7 12 601.13 610.69 173.30 o
3 7 12 520.09 346.61 173.30 <
5 7 12 352.55 396.12 198.06 <
0 8 12 7273.69 7410.79 577.68 o
2 8 12 1330.11 1402.93 231.07 o
4 8 12 5808.71 5471.44 503.40 o
1 9 12 1134.21 1361.67 222.82 o
3 9 12 941.77 783.99 206.31 o
5 9 12 734.82 750.98 206.31 o
0 10 12 53475.50 55448.90 2236.44 o
2 10 12 41779.20 43144.30 1287.40 o
4 10 12 42850.60 43094.80 1270.89 o
1 11 12 102.86 165.05 173.30 <
3 11 12 55.45 41.26 280.59 <
0 12 12 1089.87 767.49 272.33 <
4 12 12 798.81 858.27 264.08 o
3 13 12 6552.73 5586.97 354.86 o
2 14 12 424.32 305.34 288.84 <
1 15 12 27470.70 25071.20 1262.64 o
3 15 12 24684.60 25219.80 924.28 o
0 16 12 181.19 16.51 305.34 <
2 16 12 1073.17 1180.11 231.07 o
1 17 12 914.07 668.46 214.57 o
1 1 13 226.41 503.40 231.07 <
0 2 13 15944.00 16043.00 874.77 o
2 2 13 14163.40 14384.20 800.50 o
1 3 13 17279.70 17223.10 651.95 o
0 4 13 396.61 206.31 247.58 <
2 4 13 305.93 247.58 222.82 <
1 5 13 3687.55 4571.91 470.39 o
