#------------------------------------------------------------------------------
#$Date: 2021-04-28 10:41:02 +0300 (Wed, 28 Apr 2021) $
#$Revision: 264624 $
#$URL: file:///home/coder/svn-repositories/cod/cif/1/56/21/1562193.cif $
#------------------------------------------------------------------------------
#
# This file is available in the Crystallography Open Database (COD),
# http://www.crystallography.net/
#
# All data on this site have been placed in the public domain by the
# contributors.
#
data_1562193
loop_
_publ_author_name
'Moetakef, Pouya'
'Larson, Amber M.'
'Hodges, Brenna C.'
'Zavalij, Peter'
'Gaskell, Karen J.'
'Piccoli, Philip M.'
'Rodriguez, Efrain E.'
_publ_section_title
;
 Synthesis and crystal chemistry of microporous titanates K (Ti,M)8O16
 where M=Sc--Ni
;
_journal_name_full               'Journal of Solid State Chemistry'
_journal_page_first              45
_journal_page_last               53
_journal_paper_doi               10.1016/j.jssc.2014.08.012
_journal_volume                  220
_journal_year                    2014
_chemical_compound_source        Synthesized
_chemical_formula_sum            'K1.4 Mn1.36 O16 Ti6.64'
_chemical_formula_weight         703.24
_space_group_crystal_system      tetragonal
_space_group_IT_number           87
_space_group_name_Hall           '-I 4'
_space_group_name_H-M_alt        'I 4/m'
_space_group_ssg_IT_number       87
_symmetry_cell_setting           tetragonal
_symmetry_Int_Tables_number      87
_symmetry_space_group_name_H-M   'I 4/m'
_cell_angle_alpha                90
_cell_angle_beta                 90
_cell_angle_gamma                90
_cell_formula_units_Z            1
_cell_length_a                   10.185483(60)
_cell_length_b                   10.185483(60)
_cell_length_c                   2.953156(21)
_cell_measurement_temperature    300
_cell_volume                     306.372(3)
_computing_cell_refinement       'Bruker AXS TOPAS 4.2'
_computing_structure_refinement  'Bruker AXS TOPAS 4.2'
_diffrn_ambient_temperature      300
_diffrn_measurement_device_type  'Bruker D8'
_diffrn_radiation_probe          x-ray
_diffrn_radiation_type           'Cu K\a'
_diffrn_radiation_wavelength     1.5418
_diffrn_reflns_limit_h_max       12
_diffrn_reflns_limit_h_min       0
_diffrn_reflns_limit_k_max       12
_diffrn_reflns_limit_k_min       0
_diffrn_reflns_limit_l_max       3
_diffrn_reflns_limit_l_min       0
_diffrn_source                   'Sealed X-ray tube'
_exptl_absorpt_coefficient_mu    51.257
_exptl_crystal_colour            Black
_exptl_crystal_density_diffrn    3.812
_pd_char_colour                  Black
_pd_meas_2theta_range_inc        0.0092
_pd_meas_2theta_range_max        140
_pd_meas_2theta_range_min        7
_pd_meas_number_of_points        14449
_pd_proc_2theta_range_inc        0.0092
_pd_proc_2theta_range_max        140
_pd_proc_2theta_range_min        7
_pd_proc_ls_background_function
;   One on X                                 126120(400)
   Chebychev polynomial, Coefficient  0      -2653(12)
                                      1      3484(15)
                                      2      -1809.4(95)
                                      3      948.8(56)
                                      4      -444.1(34)
                                      5      176.5(17)
                                      6      -61.8(10)
;
_pd_proc_ls_prof_R_factor        4.07
_pd_proc_ls_prof_wR_expected     3.27
_pd_proc_ls_prof_wR_factor       5.27
_refine_ls_goodness_of_fit_all   1.61
_refine_ls_number_constraints    6
_refine_ls_number_parameters     23
_refine_ls_R_I_factor            1.810
_cod_data_source_file            JSSC-2014-220-45-1.cif
_cod_data_source_block           KTMO
_cod_depositor_comments
;
The following automatic conversions were performed:

data item '_geom_angle_publ_flag' value 'N' was changed to 'n' in
accordance with the built-in table derived from the CIF Core
dictionary named 'cif_core.dic' version 2.4.5 last updated on
2014-11-21 (20 times).

data item '_geom_bond_publ_flag' value 'N' was changed to 'n' in
accordance with the built-in table derived from the CIF Core
dictionary named 'cif_core.dic' version 2.4.5 last updated on
2014-11-21 (12 times).

Automatic conversion script
Id: cif_fix_values 8369 2020-08-20 11:38:08Z andrius 
;
_cod_original_cell_volume        306.3724(43)
_cod_original_sg_symbol_H-M      I4/m
_cod_original_formula_sum        'K1.40 Mn1.36 O16 Ti6.64'
_cod_database_code               1562193
loop_
_symmetry_equiv_pos_as_xyz
'x, y, z'
'-x, -y, z'
'-y, x, z'
'y, -x, z'
'x+1/2, y+1/2, z+1/2'
'-x+1/2, -y+1/2, z+1/2'
'-y+1/2, x+1/2, z+1/2'
'y+1/2, -x+1/2, z+1/2'
'-x, -y, -z'
'x, y, -z'
'y, -x, -z'
'-y, x, -z'
'-x+1/2, -y+1/2, -z+1/2'
'x+1/2, y+1/2, -z+1/2'
'y+1/2, -x+1/2, -z+1/2'
'-y+1/2, x+1/2, -z+1/2'
loop_
_atom_site_label
_atom_site_type_symbol
_atom_site_symmetry_multiplicity
_atom_site_fract_x
_atom_site_fract_y
_atom_site_fract_z
_atom_site_occupancy
_atom_site_B_iso_or_equiv
Ti1 Ti 8 0.647793(93) 0.16914(11) 0 0.83 0.612(14)
Mn1 Mn 8 0.647793(93) 0.16914(11) 0 0.17 0.612(14)
O1 O 8 0.66166(29) 0.04360(30) 0.5 1 0.612(14)
O2 O 8 0.65416(32) 0.29647(25) 0.5 1 0.612(14)
K1 K 4 0.5 0.5 0.1390(79) 0.328(28) 0.612(14)
K2 K 2 0.5 0.5 0 0.043(56) 0.612(14)
loop_
_geom_angle_atom_site_label_1
_geom_angle_atom_site_label_2
_geom_angle_atom_site_label_3
_geom_angle
_geom_angle_publ_flag
Ti1 O1 O2 49.10(7) n
Ti1 O1 K1 38.3(3) n
Ti1 O1 K2 34.01(6) n
Ti1 O2 O1 48.82(7) n
Ti1 O2 K1 100.6(4) n
Ti1 O2 K2 93.96(6) n
Ti1 K1 O1 19.09(10) n
Ti1 K1 O2 31.37(8) n
Ti1 K1 K2 83.7(4) n
Ti1 K2 O1 17.27(1) n
Ti1 K2 O2 32.11(4) n
Ti1 K2 K1 90.0 n
K1 O1 O2 21.48(16) n
K1 O1 K2 4.5(3) n
K1 O2 O1 138.9(2) n
K1 O2 K2 7.3(4) n
K1 K2 O1 73.33(1) n
K1 K2 O2 60.41(3) n
K2 O1 O2 24.21(6) n
K2 O2 O1 135.10(10) n
loop_
_geom_bond_atom_site_label_1
_geom_bond_atom_site_label_2
_geom_bond_distance
_geom_bond_publ_flag
Ti1 O1 1.958(2) n
Ti1 O2 1.967(2) n
O1 Ti1 1.958(2) n
O1 O2 2.577(4) n
O2 Ti1 1.967(2) n
O2 O1 2.577(4) n
O2 K1 2.811(9) n
O2 K2 2.991(3) n
K1 K2 0.41(2) n
K1 O2 2.811(9) n
K2 K1 0.41(2) n
K2 O2 2.991(3) n
loop_
_refln_index_h
_refln_index_k
_refln_index_l
_refln_F_squared_calc
_refln_F_squared_meas
_refln_F_squared_sigma
_refln_observed_status
1 1 0 7.06 7.11 0.41 o
0 2 0 14.06 13.88 0.41 o
2 2 0 5.49 5.45 0.41 o
3 1 0 51.65 51.15 0.30 o
1 3 0 14.85 14.71 0.54 o
0 1 1 0.89 0.85 0.29 o
0 4 0 20.11 19.54 0.56 o
2 1 1 32.83 33.15 2.01 o
1 2 1 44.01 44.45 2.09 o
3 3 0 5.87 5.75 0.44 o
4 2 0 12.16 12.31 0.43 o
2 4 0 5.31 5.38 0.37 o
0 3 1 50.61 53.39 0.87 o
3 2 1 0.02 0.02 0.05 o
2 3 1 5.88 5.76 0.57 o
5 1 0 8.64 8.88 0.72 o
1 5 0 10.10 10.37 0.76 o
4 1 1 38.99 39.22 1.89 o
1 4 1 48.47 48.76 1.96 o
4 4 0 5.04 4.92 0.42 o
5 3 0 4.95 4.84 0.40 o
3 5 0 0.18 0.18 0.09 o
0 6 0 67.59 66.16 1.06 o
4 3 1 6.99 7.24 0.54 o
3 4 1 0.06 0.06 0.07 o
0 5 1 13.08 13.53 0.67 o
6 2 0 0.43 0.43 0.14 o
2 6 0 8.50 8.44 0.54 o
5 2 1 98.58 98.61 2.28 o
2 5 1 42.05 42.06 1.88 o
0 0 2 38.29 38.84 0.89 o
1 6 1 14.49 14.80 0.77 o
6 1 1 0.82 0.84 0.20 o
1 1 2 10.00 10.41 0.79 o
5 5 0 1.21 1.22 0.22 o
1 7 0 0.03 0.03 0.04 o
7 1 0 13.37 13.43 0.67 o
0 2 2 16.67 17.32 0.94 o
4 6 0 0.25 0.25 0.08 o
6 4 0 10.76 10.86 0.55 o
5 4 1 22.88 24.71 1.38 o
4 5 1 120.14 129.78 2.41 o
2 2 2 0.71 0.72 0.19 o
6 3 1 3.06 3.03 0.36 o
3 6 1 1.76 1.75 0.27 o
3 1 2 25.82 25.90 0.94 o
1 3 2 5.07 5.09 0.47 o
7 3 0 9.07 9.40 0.45 o
3 7 0 21.80 22.58 0.70 o
0 7 1 3.20 3.17 0.39 o
0 4 2 26.14 26.24 1.12 o
0 8 0 0.51 0.51 0.12 o
7 2 1 10.16 10.48 0.71 o
2 7 1 2.89 2.98 0.39 o
3 3 2 16.32 16.95 0.93 o
4 2 2 3.26 3.23 0.39 o
2 4 2 2.26 2.24 0.31 o
8 2 0 2.61 2.60 0.26 o
2 8 0 0.04 0.04 0.03 o
6 6 0 18.91 18.79 0.78 o
6 5 1 0.00 0.00 0.05 o
5 6 1 10.48 10.32 0.65 o
1 5 2 2.42 2.39 0.34 o
5 1 2 12.19 12.01 0.81 o
7 5 0 8.33 8.20 0.51 o
5 7 0 9.43 9.28 0.53 o
4 7 1 8.19 8.37 0.59 o
7 4 1 2.77 2.83 0.36 o
8 1 1 3.05 3.11 0.37 o
1 8 1 12.01 12.26 0.71 o
4 4 2 1.90 1.85 0.28 o
4 8 0 6.97 6.72 0.40 o
8 4 0 1.11 1.07 0.16 o
5 3 2 1.97 1.91 0.28 o
3 5 2 0.21 0.21 0.12 o
9 1 0 32.46 32.38 1.04 o
1 9 0 0.69 0.69 0.12 o
0 6 2 47.45 46.01 1.48 o
8 3 1 9.35 8.95 0.55 o
3 8 1 4.36 4.17 0.38 o
6 2 2 0.08 0.08 0.08 o
2 6 2 15.41 15.13 0.85 o
9 3 0 5.69 5.71 0.36 o
3 9 0 5.52 5.54 0.35 o
0 9 1 5.75 5.54 0.44 o
7 6 1 18.60 17.99 0.80 o
6 7 1 1.34 1.30 0.20 o
2 9 1 9.49 9.18 0.54 o
9 2 1 1.20 1.16 0.20 o
5 5 2 0.05 0.05 0.04 o
1 7 2 0.53 0.53 0.16 o
7 1 2 20.93 21.18 1.02 o
7 7 0 2.36 2.41 0.23 o
4 6 2 2.07 2.09 0.29 o
6 4 2 19.60 19.83 0.93 o
6 8 0 1.91 1.95 0.21 o
8 6 0 2.24 2.28 0.21 o
0 10 0 8.48 8.66 0.45 o
8 5 1 15.68 15.92 0.83 o
5 8 1 17.54 17.80 0.92 o
2 10 0 13.98 13.99 0.64 o
10 2 0 0.02 0.02 0.02 o
7 3 2 5.57 5.71 0.45 o
3 7 2 16.96 17.40 0.85 o
9 5 0 0.59 0.60 0.11 o
5 9 0 6.34 6.45 0.39 o
0 1 3 0.35 0.35 0.11 o
4 9 1 6.95 6.97 0.51 o
9 4 1 5.93 5.94 0.46 o
0 8 2 2.31 2.35 0.32 o
1 2 3 21.26 21.54 0.99 o
2 1 3 4.33 4.38 0.40 o
10 1 1 0.32 0.32 0.10 o
1 10 1 5.81 5.84 0.45 o
8 2 2 0.66 0.68 0.14 o
2 8 2 0.95 0.97 0.21 o
4 10 0 0.02 0.02 0.02 o
10 4 0 9.04 9.18 0.49 o
0 3 3 2.96 3.02 0.31 o
6 6 2 15.31 15.73 0.85 o
3 2 3 1.07 1.09 0.19 o
2 3 3 0.10 0.10 0.05 o
10 3 1 6.41 6.41 0.44 o
3 10 1 1.56 1.56 0.21 o
7 5 2 4.80 4.81 0.44 o
5 7 2 16.94 16.99 0.89 o
1 11 0 2.30 2.33 0.21 o
11 1 0 0.10 0.10 0.05 o
1 4 3 7.21 7.36 0.53 o
4 1 3 16.93 17.26 0.87 o
7 8 1 3.74 3.86 0.32 o
8 7 1 0.24 0.25 0.09 o
4 8 2 3.84 3.88 0.36 o
8 4 2 0.28 0.28 0.08 o
8 8 0 0.08 0.08 0.03 o
9 6 1 0.01 0.01 0.04 o
6 9 1 0.98 0.98 0.16 o
1 9 2 0.01 0.01 0.03 o
9 1 2 29.60 29.07 1.13 o
7 9 0 2.06 2.04 0.18 o
9 7 0 22.53 22.34 0.79 o
3 11 0 0.16 0.16 0.05 o
11 3 0 0.13 0.13 0.05 o
4 3 3 6.05 5.80 0.40 o
3 4 3 0.80 0.77 0.14 o
0 5 3 8.11 7.78 0.47 o
0 11 1 10.79 10.65 0.59 o
6 10 0 8.20 8.06 0.39 o
10 6 0 0.25 0.24 0.06 o
5 2 3 20.00 19.94 0.87 o
2 5 3 20.83 20.77 0.91 o
10 5 1 23.73 23.97 0.89 o
5 10 1 0.01 0.01 0.02 o
2 11 1 3.86 3.90 0.34 o
11 2 1 31.64 31.97 1.08 o
9 3 2 12.06 12.38 0.68 o
3 9 2 11.81 12.12 0.67 o
0 12 0 4.91 4.84 0.30 o
1 6 3 1.54 1.51 0.20 o
6 1 3 0.36 0.35 0.09 o
7 7 2 6.18 6.17 0.47 o
5 11 0 2.28 2.24 0.19 o
11 5 0 0.90 0.88 0.12 o
8 6 2 5.88 5.61 0.41 o
6 8 2 0.73 0.70 0.13 o
0 10 2 16.40 15.65 0.75 o
2 12 0 1.17 1.13 0.12 o
12 2 0 2.94 2.82 0.21 o
4 5 3 27.87 27.03 1.05 o
5 4 3 13.02 12.63 0.64 o
4 11 1 42.40 41.69 1.38 o
11 4 1 0.90 0.89 0.16 o
10 2 2 0.43 0.44 0.13 o
2 10 2 12.75 12.98 0.74 o
6 3 3 0.02 0.02 0.01 o
3 6 3 0.11 0.12 0.05 o
5 9 2 4.74 4.86 0.41 o
9 5 2 2.65 2.71 0.31 o
