#------------------------------------------------------------------------------
#$Date: 2021-04-28 10:41:02 +0300 (Wed, 28 Apr 2021) $
#$Revision: 264624 $
#$URL: file:///home/coder/svn-repositories/cod/cif/1/56/21/1562194.cif $
#------------------------------------------------------------------------------
#
# This file is available in the Crystallography Open Database (COD),
# http://www.crystallography.net/
#
# All data on this site have been placed in the public domain by the
# contributors.
#
data_1562194
loop_
_publ_author_name
'Moetakef, Pouya'
'Larson, Amber M.'
'Hodges, Brenna C.'
'Zavalij, Peter'
'Gaskell, Karen J.'
'Piccoli, Philip M.'
'Rodriguez, Efrain E.'
_publ_section_title
;
 Synthesis and crystal chemistry of microporous titanates K (Ti,M)8O16
 where M=Sc--Ni
;
_journal_name_full               'Journal of Solid State Chemistry'
_journal_page_first              45
_journal_page_last               53
_journal_paper_doi               10.1016/j.jssc.2014.08.012
_journal_volume                  220
_journal_year                    2014
_chemical_compound_source        Synthesized
_chemical_formula_sum            'Co0.73 K1.47 O16 Ti7.27'
_chemical_formula_weight         704.65
_space_group_crystal_system      tetragonal
_space_group_IT_number           87
_space_group_name_Hall           '-I 4'
_space_group_name_H-M_alt        'I 4/m'
_space_group_ssg_IT_number       87
_symmetry_cell_setting           tetragonal
_symmetry_Int_Tables_number      87
_symmetry_space_group_name_H-M   'I 4/m'
_cell_angle_alpha                90
_cell_angle_beta                 90
_cell_angle_gamma                90
_cell_formula_units_Z            1
_cell_length_a                   10.15689(11)
_cell_length_b                   10.15689(11)
_cell_length_c                   2.964780(36)
_cell_measurement_temperature    300
_cell_volume                     305.854(6)
_computing_cell_refinement       'Bruker AXS TOPAS 4.2'
_computing_structure_refinement  'Bruker AXS TOPAS 4.2'
_diffrn_ambient_temperature      300
_diffrn_measurement_device_type  'Bruker D8'
_diffrn_radiation_probe          x-ray
_diffrn_radiation_type           'Cu K\a'
_diffrn_radiation_wavelength     1.5418
_diffrn_reflns_limit_h_max       12
_diffrn_reflns_limit_h_min       0
_diffrn_reflns_limit_k_max       12
_diffrn_reflns_limit_k_min       0
_diffrn_reflns_limit_l_max       3
_diffrn_reflns_limit_l_min       0
_diffrn_source                   'Sealed X-ray tube'
_exptl_absorpt_coefficient_mu    51.398
_exptl_crystal_colour            Brown
_exptl_crystal_density_diffrn    3.826
_pd_char_colour                  Brown
_pd_meas_2theta_range_inc        0.0092
_pd_meas_2theta_range_max        140
_pd_meas_2theta_range_min        7
_pd_meas_number_of_points        14449
_pd_proc_2theta_range_inc        0.0092
_pd_proc_2theta_range_max        140
_pd_proc_2theta_range_min        7
_pd_proc_ls_background_function
;   One on X                                 112160(460)
   Chebychev polynomial, Coefficient  0      -1681(14)
                                      1      3051(18)
                                      2      -1558(11)
                                      3      812.6(65)
                                      4      -380.7(40)
                                      5      153.4(21)
                                      6      -55.2(14)
;
_pd_proc_ls_pref_orient_corr     '(Dir 1 : 0 0 1)     1.0582(20)'
_pd_proc_ls_prof_R_factor        3.159
_pd_proc_ls_prof_wR_expected     2.566
_pd_proc_ls_prof_wR_factor       4.082
_refine_ls_goodness_of_fit_all   1.590
_refine_ls_number_constraints    6
_refine_ls_number_parameters     24
_refine_ls_R_I_factor            1.094
_cod_data_source_file            JSSC-2014-220-45-1.cif
_cod_data_source_block           KTCoO
_cod_depositor_comments
;
The following automatic conversions were performed:

data item '_geom_angle_publ_flag' value 'N' was changed to 'n' in
accordance with the built-in table derived from the CIF Core
dictionary named 'cif_core.dic' version 2.4.5 last updated on
2014-11-21 (20 times).

data item '_geom_bond_publ_flag' value 'N' was changed to 'n' in
accordance with the built-in table derived from the CIF Core
dictionary named 'cif_core.dic' version 2.4.5 last updated on
2014-11-21 (12 times).

Automatic conversion script
Id: cif_fix_values 8369 2020-08-20 11:38:08Z andrius 
;
_cod_original_cell_volume        305.8538(75)
_cod_original_sg_symbol_H-M      I4/m
_cod_database_code               1562194
loop_
_space_group_symop_operation_xyz
'x, y, z'
'-x, -y, z'
'-y, x, z'
'y, -x, z'
'x+1/2, y+1/2, z+1/2'
'-x+1/2, -y+1/2, z+1/2'
'-y+1/2, x+1/2, z+1/2'
'y+1/2, -x+1/2, z+1/2'
'-x, -y, -z'
'x, y, -z'
'y, -x, -z'
'-y, x, -z'
'-x+1/2, -y+1/2, -z+1/2'
'x+1/2, y+1/2, -z+1/2'
'y+1/2, -x+1/2, -z+1/2'
'-y+1/2, x+1/2, -z+1/2'
loop_
_atom_site_label
_atom_site_type_symbol
_atom_site_symmetry_multiplicity
_atom_site_fract_x
_atom_site_fract_y
_atom_site_fract_z
_atom_site_occupancy
_atom_site_thermal_displace_type
_atom_site_B_iso_or_equiv
Ti1 Ti 8 0.64856(11) 0.16932(13) 0 0.909 Biso 0.287(17)
Co1 Co 8 0.64856(11) 0.16932(13) 0 0.091 Biso 0.287(17)
O1 O 8 0.66296(30) 0.04377(35) 0.5 1 Biso 0.287(17)
O2 O 8 0.65651(35) 0.29747(31) 0.5 1 Biso 0.287(17)
K1 K 4 0.5 0.5 0.157(11) 0.251(25) Biso 0.287(17)
K2 K 2 0.5 0.5 0 0.235(49) Biso 0.287(17)
loop_
_geom_angle_atom_site_label_1
_geom_angle_atom_site_label_2
_geom_angle_atom_site_label_3
_geom_angle
_geom_angle_publ_flag
Ti1 O1 O2 49.31(7) n
Ti1 O1 K1 39.0(4) n
Ti1 O1 K2 34.06(7) n
Ti1 O2 O1 48.85(7) n
Ti1 O2 K1 100.9(6) n
Ti1 O2 K2 93.42(6) n
Ti1 K1 O1 19.41(13) n
Ti1 K1 O2 31.50(11) n
Ti1 K1 K2 82.8(5) n
Ti1 K2 O1 17.35(1) n
Ti1 K2 O2 32.37(4) n
Ti1 K2 K1 90.0 n
K1 O1 O2 21.5(2) n
K1 O1 K2 5.1(4) n
K1 O2 O1 138.7(3) n
K1 O2 K2 8.3(6) n
K1 K2 O1 73.23(1) n
K1 K2 O2 60.31(3) n
K2 O1 O2 24.55(6) n
K2 O2 O1 134.48(10) n
loop_
_geom_bond_atom_site_label_1
_geom_bond_atom_site_label_2
_geom_bond_distance
_geom_bond_publ_flag
Ti1 O1 1.961(2) n
Ti1 O2 1.9744(23) n
O1 Ti1 1.961(2) n
O1 O2 2.578(4) n
O2 Ti1 1.9744(23) n
O2 O1 2.5777(48) n
O2 K1 2.792(11) n
O2 K2 2.9926(29) n
K1 K2 0.47(3) n
K1 O2 2.792(11) n
K2 K1 0.47(3) n
K2 O2 2.9926(29) n
loop_
_refln_index_h
_refln_index_k
_refln_index_l
_refln_F_squared_calc
_refln_F_squared_meas
_refln_F_squared_sigma
_refln_observed_status
1 1 0 6.42 6.48 0.35 o
0 2 0 14.48 14.46 0.38 o
2 2 0 6.34 6.42 0.42 o
3 1 0 51.89 51.96 0.33 o
1 3 0 16.73 16.76 0.53 o
0 1 1 1.19 1.15 0.31 o
0 4 0 19.07 18.89 0.59 o
2 1 1 35.70 35.81 1.86 o
1 2 1 44.08 44.21 1.93 o
3 3 0 5.56 5.45 0.42 o
4 2 0 13.08 13.61 0.49 o
2 4 0 5.51 5.73 0.38 o
0 3 1 55.19 57.29 1.00 o
3 2 1 0.00 0.00 0.03 o
2 3 1 5.70 5.64 0.56 o
1 5 0 10.42 10.90 0.71 o
5 1 0 8.89 9.30 0.67 o
4 1 1 39.78 39.84 1.74 o
1 4 1 54.00 54.08 1.87 o
4 4 0 5.75 5.81 0.44 o
3 5 0 0.25 0.26 0.10 o
5 3 0 5.44 5.51 0.42 o
0 6 0 75.00 74.43 1.05 o
4 3 1 5.84 5.82 0.50 o
3 4 1 0.08 0.08 0.07 o
0 5 1 13.79 13.74 0.72 o
6 2 0 0.39 0.39 0.12 o
2 6 0 9.13 9.08 0.52 o
5 2 1 107.24 104.69 2.14 o
2 5 1 42.41 41.40 1.68 o
0 0 2 43.16 41.91 0.84 o
1 6 1 15.81 16.05 0.83 o
6 1 1 0.91 0.93 0.21 o
1 1 2 9.49 9.94 0.84 o
5 5 0 1.52 1.59 0.23 o
7 1 0 12.70 13.31 0.63 o
1 7 0 0.03 0.03 0.04 o
0 2 2 17.40 17.75 1.00 o
4 6 0 0.18 0.19 0.07 o
6 4 0 11.51 11.72 0.55 o
5 4 1 25.90 26.04 1.24 o
4 5 1 131.28 131.95 2.20 o
2 2 2 1.26 1.27 0.26 o
6 3 1 4.30 4.31 0.41 o
3 6 1 2.60 2.60 0.31 o
3 1 2 29.22 30.09 1.09 o
1 3 2 6.92 7.12 0.58 o
7 3 0 10.43 11.00 0.49 o
3 7 0 23.87 25.17 0.73 o
0 7 1 4.08 4.05 0.42 o
0 4 2 26.24 26.82 1.17 o
0 8 0 0.95 0.95 0.16 o
7 2 1 11.39 11.76 0.69 o
2 7 1 3.86 3.99 0.43 o
3 3 2 16.51 17.12 0.93 o
4 2 2 4.38 4.37 0.46 o
2 4 2 2.85 2.85 0.36 o
8 2 0 3.30 3.30 0.28 o
2 8 0 0.01 0.01 0.02 o
6 6 0 22.80 22.98 0.76 o
6 5 1 0.00 0.00 0.07 o
5 6 1 10.33 10.30 0.61 o
1 5 2 3.06 3.04 0.39 o
5 1 2 12.90 12.83 0.81 o
7 5 0 9.09 8.99 0.47 o
5 7 0 10.62 10.50 0.52 o
4 7 1 9.53 9.71 0.61 o
7 4 1 4.53 4.61 0.44 o
8 1 1 4.06 4.13 0.40 o
1 8 1 12.94 13.18 0.68 o
4 4 2 2.70 2.68 0.34 o
4 8 0 8.15 8.07 0.41 o
8 4 0 1.32 1.31 0.17 o
5 3 2 2.73 2.70 0.34 o
3 5 2 0.11 0.11 0.08 o
9 1 0 36.53 37.53 0.96 o
1 9 0 1.02 1.05 0.15 o
0 6 2 58.64 58.86 1.62 o
8 3 1 9.53 9.31 0.54 o
3 8 1 4.27 4.18 0.38 o
6 2 2 0.07 0.07 0.08 o
2 6 2 16.96 16.66 0.87 o
9 3 0 6.40 6.40 0.36 o
3 9 0 6.23 6.23 0.35 o
0 9 1 6.97 6.89 0.47 o
6 7 1 1.78 1.77 0.23 o
7 6 1 21.33 21.27 0.83 o
2 9 1 11.06 11.03 0.58 o
9 2 1 1.03 1.03 0.18 o
5 5 2 0.17 0.16 0.07 o
1 7 2 0.46 0.45 0.15 o
7 1 2 21.22 21.07 1.00 o
7 7 0 2.28 2.31 0.21 o
4 6 2 1.88 1.90 0.29 o
6 4 2 21.70 21.83 0.96 o
8 6 0 2.67 2.70 0.22 o
6 8 0 1.63 1.64 0.18 o
0 10 0 9.19 9.27 0.43 o
8 5 1 16.59 16.92 0.78 o
5 8 1 22.73 23.19 0.96 o
2 10 0 16.05 16.21 0.59 o
10 2 0 0.07 0.07 0.04 o
7 3 2 7.47 7.63 0.54 o
3 7 2 20.84 21.26 0.92 o
9 5 0 0.55 0.55 0.10 o
5 9 0 8.41 8.37 0.41 o
0 1 3 0.10 0.10 0.06 o
4 9 1 6.78 6.84 0.47 o
9 4 1 6.85 6.91 0.46 o
1 2 3 22.20 22.24 0.92 o
2 1 3 6.85 6.86 0.49 o
0 8 2 3.26 3.28 0.38 o
10 1 1 0.31 0.31 0.11 o
1 10 1 7.92 7.97 0.51 o
0 3 3 5.05 5.11 0.41 o
8 2 2 1.21 1.23 0.21 o
2 8 2 0.53 0.53 0.15 o
4 10 0 0.03 0.03 0.03 o
10 4 0 11.24 11.32 0.49 o
3 2 3 0.63 0.63 0.14 o
2 3 3 0.31 0.31 0.09 o
6 6 2 20.98 21.04 0.93 o
10 3 1 7.24 7.26 0.46 o
3 10 1 1.68 1.68 0.22 o
5 7 2 19.76 19.86 0.91 o
7 5 2 6.02 6.05 0.48 o
1 11 0 3.07 3.09 0.23 o
11 1 0 0.20 0.20 0.07 o
1 4 3 11.17 11.24 0.63 o
4 1 3 17.99 18.09 0.82 o
7 8 1 4.52 4.58 0.33 o
8 7 1 0.40 0.40 0.12 o
4 8 2 5.32 5.40 0.43 o
8 4 2 0.48 0.48 0.12 o
8 8 0 0.01 0.01 0.02 o
6 9 1 1.32 1.30 0.19 o
9 6 1 0.02 0.02 0.05 o
1 9 2 0.12 0.12 0.06 o
9 1 2 37.02 36.51 1.22 o
7 9 0 2.67 2.63 0.20 o
9 7 0 27.38 27.00 0.77 o
3 11 0 0.19 0.18 0.05 o
11 3 0 0.19 0.19 0.06 o
4 3 3 5.30 5.23 0.39 o
3 4 3 0.51 0.51 0.12 o
0 5 3 8.28 8.16 0.50 o
0 11 1 13.65 13.83 0.65 o
5 2 3 27.95 27.91 1.03 o
2 5 3 22.33 22.30 0.91 o
6 10 0 9.42 9.48 0.42 o
10 6 0 0.34 0.34 0.07 o
10 5 1 31.63 31.95 1.01 o
5 10 1 0.02 0.02 0.04 o
11 2 1 41.08 41.49 1.19 o
2 11 1 4.61 4.66 0.37 o
9 3 2 14.13 14.22 0.73 o
3 9 2 13.87 13.96 0.72 o
1 6 3 2.69 2.68 0.28 o
6 1 3 0.16 0.16 0.06 o
0 12 0 7.24 7.23 0.36 o
7 7 2 6.44 6.44 0.48 o
11 5 0 1.41 1.39 0.15 o
5 11 0 2.81 2.77 0.21 o
5 4 3 14.98 14.79 0.70 o
4 5 3 38.56 38.07 1.25 o
6 8 2 0.63 0.62 0.13 o
8 6 2 7.12 7.08 0.49 o
0 10 2 18.79 18.68 0.83 o
12 2 0 3.40 3.38 0.24 o
2 12 0 1.53 1.52 0.14 o
11 4 1 1.57 1.56 0.21 o
4 11 1 55.06 54.88 1.49 o
6 3 3 0.15 0.15 0.06 o
3 6 3 0.03 0.03 0.01 o
10 2 2 0.25 0.26 0.10 o
2 10 2 16.35 16.57 0.80 o
9 5 2 2.72 2.76 0.32 o
5 9 2 7.46 7.57 0.52 o
