#------------------------------------------------------------------------------
#$Date: 2021-04-28 10:41:02 +0300 (Wed, 28 Apr 2021) $
#$Revision: 264624 $
#$URL: file:///home/coder/svn-repositories/cod/cif/1/56/21/1562195.cif $
#------------------------------------------------------------------------------
#
# This file is available in the Crystallography Open Database (COD),
# http://www.crystallography.net/
#
# All data on this site have been placed in the public domain by the
# contributors.
#
data_1562195
loop_
_publ_author_name
'Moetakef, Pouya'
'Larson, Amber M.'
'Hodges, Brenna C.'
'Zavalij, Peter'
'Gaskell, Karen J.'
'Piccoli, Philip M.'
'Rodriguez, Efrain E.'
_publ_section_title
;
 Synthesis and crystal chemistry of microporous titanates K (Ti,M)8O16
 where M=Sc--Ni
;
_journal_name_full               'Journal of Solid State Chemistry'
_journal_page_first              45
_journal_page_last               53
_journal_paper_doi               10.1016/j.jssc.2014.08.012
_journal_volume                  220
_journal_year                    2014
_chemical_compound_source        Synthesized
_chemical_formula_sum            'K1.63 Ni0.76 O16 Ti7.24'
_chemical_formula_weight         710.76
_space_group_crystal_system      tetragonal
_space_group_IT_number           87
_space_group_name_Hall           '-I 4'
_space_group_name_H-M_alt        'I 4/m'
_space_group_ssg_IT_number       87
_symmetry_cell_setting           tetragonal
_symmetry_Int_Tables_number      87
_symmetry_space_group_name_H-M   'I 4/m'
_cell_angle_alpha                90
_cell_angle_beta                 90
_cell_angle_gamma                90
_cell_formula_units_Z            1
_cell_length_a                   10.146517(33)
_cell_length_b                   10.146517(33)
_cell_length_c                   2.963254(18)
_cell_measurement_temperature    300
_cell_volume                     305.072(2)
_computing_cell_refinement       'Bruker AXS TOPAS 4.2'
_computing_structure_refinement  'Bruker AXS TOPAS 4.2'
_diffrn_ambient_temperature      300
_diffrn_measurement_device_type  'Bruker D8'
_diffrn_radiation_probe          x-ray
_diffrn_radiation_type           'Cu K\a'
_diffrn_radiation_wavelength     1.5418
_diffrn_reflns_limit_h_max       12
_diffrn_reflns_limit_h_min       0
_diffrn_reflns_limit_k_max       12
_diffrn_reflns_limit_k_min       0
_diffrn_reflns_limit_l_max       3
_diffrn_reflns_limit_l_min       0
_diffrn_source                   'Sealed X-ray tube'
_exptl_absorpt_coefficient_mu    45.524
_exptl_crystal_colour            Green
_exptl_crystal_density_diffrn    3.869
_pd_char_colour                  Green
_pd_meas_2theta_range_inc        0.0092
_pd_meas_2theta_range_max        140
_pd_meas_2theta_range_min        7
_pd_meas_number_of_points        14449
_pd_proc_2theta_range_inc        0.0092
_pd_proc_2theta_range_max        140
_pd_proc_2theta_range_min        7
_pd_proc_ls_background_function
;   One on X                                 114320(480)
   Chebychev polynomial, Coefficient  0      -2201(15)
                                      1      3073(18)
                                      2      -1578(11)
                                      3      807.0(67)
                                      4      -361.4(41)
                                      5      132.3(21)
                                      6      -41.1(13)
;
_pd_proc_ls_pref_orient_corr     '(Dir 1 : 0 0 1)     1.3247(19)'
_pd_proc_ls_prof_R_factor        4.20
_pd_proc_ls_prof_wR_expected     3.04
_pd_proc_ls_prof_wR_factor       5.67
_refine_ls_goodness_of_fit_all   1.87
_refine_ls_number_constraints    6
_refine_ls_number_parameters     24
_refine_ls_R_I_factor            3.816
_cod_data_source_file            JSSC-2014-220-45-1.cif
_cod_data_source_block           KTNO
_cod_depositor_comments
;
The following automatic conversions were performed:

data item '_geom_angle_publ_flag' value 'N' was changed to 'n' in
accordance with the built-in table derived from the CIF Core
dictionary named 'cif_core.dic' version 2.4.5 last updated on
2014-11-21 (20 times).

data item '_geom_bond_publ_flag' value 'N' was changed to 'n' in
accordance with the built-in table derived from the CIF Core
dictionary named 'cif_core.dic' version 2.4.5 last updated on
2014-11-21 (12 times).

Automatic conversion script
Id: cif_fix_values 8369 2020-08-20 11:38:08Z andrius 
;
_cod_original_cell_volume        305.0723(27)
_cod_original_sg_symbol_H-M      I4/m
_cod_database_code               1562195
loop_
_symmetry_equiv_pos_as_xyz
'x, y, z'
'-x, -y, z'
'-y, x, z'
'y, -x, z'
'x+1/2, y+1/2, z+1/2'
'-x+1/2, -y+1/2, z+1/2'
'-y+1/2, x+1/2, z+1/2'
'y+1/2, -x+1/2, z+1/2'
'-x, -y, -z'
'x, y, -z'
'y, -x, -z'
'-y, x, -z'
'-x+1/2, -y+1/2, -z+1/2'
'x+1/2, y+1/2, -z+1/2'
'y+1/2, -x+1/2, -z+1/2'
'-y+1/2, x+1/2, -z+1/2'
loop_
_atom_site_label
_atom_site_type_symbol
_atom_site_symmetry_multiplicity
_atom_site_fract_x
_atom_site_fract_y
_atom_site_fract_z
_atom_site_occupancy
_atom_site_B_iso_or_equiv
Ti1 Ti 8 0.648101(83) 0.168751(94) 0 0.905 0.264(13)
Ni1 Ni 8 0.648101(83) 0.168751(94) 0 0.095 0.264(13)
O1 O 8 0.66526(23) 0.04609(26) 0.5 1 0.264(13)
O2 O 8 0.65486(27) 0.29996(23) 0.5 1 0.264(13)
K1 K 4 0.5 0.5 0.1967(71) 0.242(11) 0.264(13)
K2 K 2 0.5 0.5 0 0.329(22) 0.264(13)
loop_
_geom_angle_atom_site_label_1
_geom_angle_atom_site_label_2
_geom_angle_atom_site_label_3
_geom_angle
_geom_angle_publ_flag
Ti1 O1 O2 49.93(7) n
Ti1 O1 K1 40.6(2) n
Ti1 O1 K2 34.29(6) n
Ti1 O2 O1 48.23(5) n
Ti1 O2 K1 103.5(4) n
Ti1 O2 K2 93.87(6) n
Ti1 K1 O1 19.81(8) n
Ti1 K1 O2 31.33(9) n
Ti1 K1 K2 81.0(3) n
Ti1 K2 O1 17.29(1) n
Ti1 K2 O2 32.70(3) n
Ti1 K2 K1 90.0 n
K1 O1 O2 20.41(13) n
K1 O1 K2 6.4(2) n
K1 O2 O1 140.3(2) n
K1 O2 K2 10.7(4) n
K1 K2 O1 73.18(1) n
K1 K2 O2 60.01(2) n
K2 O1 O2 24.21(5) n
K2 O2 O1 134.90(9) n
loop_
_geom_bond_atom_site_label_1
_geom_bond_atom_site_label_2
_geom_bond_distance
_geom_bond_publ_flag
Ti1 O1 1.943(2) n
Ti1 O2 1.9934(15) n
O1 Ti1 1.943(2) n
O1 O2 2.578(4) n
O2 Ti1 1.9934(15) n
O2 O1 2.5777(48) n
O2 K1 2.719(7) n
O2 K2 2.964(2) n
K1 K2 0.58(2) n
K1 O2 2.719(7) n
K2 K1 0.58(2) n
K2 O2 2.964(2) n
loop_
_refln_index_h
_refln_index_k
_refln_index_l
_refln_F_squared_calc
_refln_F_squared_meas
_refln_F_squared_sigma
_refln_observed_status
1 1 0 6.11 6.17 0.13 o
0 2 0 14.85 14.93 0.14 o
2 2 0 7.17 7.46 0.16 o
3 1 0 60.29 59.21 0.27 o
1 3 0 21.25 20.86 0.27 o
0 1 1 1.13 1.09 0.16 o
0 4 0 22.55 22.73 0.28 o
1 2 1 51.06 53.20 1.19 o
2 1 1 39.54 41.20 1.12 o
3 3 0 5.64 5.56 0.19 o
4 2 0 17.84 21.24 0.26 o
2 4 0 7.17 8.53 0.20 o
0 3 1 62.17 67.29 0.80 o
3 2 1 0.02 0.02 0.03 o
2 3 1 6.80 6.62 0.33 o
5 1 0 8.78 10.26 0.39 o
1 5 0 12.34 14.42 0.43 o
4 1 1 43.67 41.97 1.01 o
1 4 1 64.09 61.60 1.13 o
4 4 0 8.71 8.45 0.26 o
5 3 0 6.04 6.42 0.23 o
3 5 0 0.21 0.22 0.05 o
0 6 0 87.09 80.50 0.72 o
4 3 1 7.20 7.47 0.30 o
3 4 1 0.00 0.00 0.02 o
0 5 1 17.25 17.88 0.47 o
6 2 0 0.56 0.60 0.08 o
2 6 0 8.52 9.09 0.30 o
5 2 1 119.23 115.24 1.44 o
2 5 1 50.78 49.08 1.06 o
0 0 2 48.33 49.01 1.14 o
1 6 1 18.82 18.25 0.55 o
6 1 1 0.76 0.74 0.10 o
1 1 2 11.75 11.58 0.51 o
5 5 0 1.98 2.23 0.15 o
1 7 0 0.22 0.25 0.06 o
7 1 0 13.83 15.51 0.46 o
0 2 2 21.02 21.03 0.74 o
4 6 0 0.21 0.22 0.04 o
6 4 0 13.98 14.55 0.39 o
5 4 1 28.63 27.17 0.73 o
4 5 1 151.49 143.76 1.65 o
2 2 2 0.84 0.87 0.11 o
6 3 1 4.19 4.19 0.23 o
3 6 1 2.84 2.84 0.18 o
3 1 2 30.99 32.34 0.88 o
1 3 2 7.41 7.74 0.33 o
7 3 0 13.05 15.42 0.35 o
3 7 0 26.83 31.69 0.60 o
0 7 1 3.70 3.71 0.24 o
0 4 2 33.74 33.44 1.02 o
0 8 0 0.96 0.96 0.09 o
7 2 1 10.24 10.83 0.45 o
2 7 1 4.27 4.51 0.28 o
3 3 2 19.99 20.44 0.69 o
2 4 2 2.81 2.78 0.19 o
4 2 2 5.15 5.10 0.28 o
8 2 0 3.56 3.55 0.17 o
2 8 0 0.01 0.01 0.02 o
6 6 0 26.30 29.12 0.72 o
6 5 1 0.01 0.01 0.06 o
5 6 1 12.12 12.29 0.46 o
1 5 2 2.85 2.81 0.20 o
5 1 2 15.12 14.91 0.56 o
7 5 0 12.66 13.18 0.41 o
5 7 0 10.56 11.00 0.37 o
4 7 1 9.20 9.66 0.39 o
7 4 1 5.14 5.40 0.30 o
8 1 1 4.92 5.17 0.28 o
1 8 1 16.25 17.07 0.55 o
4 4 2 3.45 3.40 0.22 o
4 8 0 9.56 9.65 0.33 o
8 4 0 1.76 1.78 0.12 o
3 5 2 0.43 0.43 0.07 o
5 3 2 2.18 2.16 0.17 o
9 1 0 43.47 40.50 0.87 o
1 9 0 1.15 1.07 0.08 o
0 6 2 64.29 66.53 1.66 o
8 3 1 10.20 10.00 0.39 o
3 8 1 3.77 3.70 0.22 o
6 2 2 0.19 0.19 0.06 o
2 6 2 18.84 18.36 0.67 o
9 3 0 6.72 6.92 0.26 o
3 9 0 6.21 6.40 0.24 o
0 9 1 8.40 8.12 0.35 o
7 6 1 23.64 22.66 0.63 o
6 7 1 1.08 1.03 0.09 o
2 9 1 15.40 14.76 0.46 o
9 2 1 2.19 2.10 0.15 o
5 5 2 0.09 0.09 0.03 o
1 7 2 0.47 0.46 0.07 o
7 1 2 25.75 25.40 0.80 o
7 7 0 2.57 2.71 0.14 o
4 6 2 2.89 2.91 0.18 o
6 4 2 28.16 28.42 0.92 o
6 8 0 2.09 2.11 0.12 o
8 6 0 2.42 2.44 0.12 o
0 10 0 10.32 10.39 0.34 o
8 5 1 20.25 21.72 0.68 o
5 8 1 26.71 28.65 0.86 o
2 10 0 19.51 19.20 0.57 o
10 2 0 0.24 0.24 0.04 o
7 3 2 8.21 8.16 0.34 o
3 7 2 21.34 21.23 0.71 o
9 5 0 0.89 0.86 0.07 o
5 9 0 10.73 10.40 0.37 o
0 1 3 0.01 0.01 0.01 o
4 9 1 9.67 9.50 0.41 o
9 4 1 7.32 7.19 0.32 o
1 2 3 22.86 22.69 0.99 o
2 1 3 9.06 8.99 0.56 o
0 8 2 4.31 4.23 0.25 o
10 1 1 0.27 0.27 0.06 o
1 10 1 8.71 8.70 0.39 o
0 3 3 7.06 7.08 0.48 o
8 2 2 0.83 0.84 0.09 o
2 8 2 0.96 0.97 0.10 o
4 10 0 0.10 0.10 0.03 o
10 4 0 14.50 15.22 0.51 o
3 2 3 0.44 0.45 0.09 o
2 3 3 0.77 0.77 0.15 o
6 6 2 22.10 22.63 0.80 o
10 3 1 7.35 7.39 0.32 o
3 10 1 2.04 2.05 0.14 o
5 7 2 22.25 22.08 0.74 o
7 5 2 7.70 7.64 0.35 o
11 1 0 0.05 0.05 0.03 o
1 11 0 3.18 3.23 0.15 o
1 4 3 15.03 15.17 0.77 o
4 1 3 17.74 17.90 0.83 o
7 8 1 4.23 4.34 0.22 o
8 7 1 0.61 0.63 0.10 o
4 8 2 5.31 5.35 0.27 o
8 4 2 0.36 0.37 0.07 o
8 8 0 0.01 0.01 0.01 o
9 6 1 0.04 0.04 0.04 o
6 9 1 1.39 1.34 0.11 o
1 9 2 0.02 0.02 0.03 o
9 1 2 41.42 39.06 1.15 o
9 7 0 30.55 31.95 0.83 o
7 9 0 2.92 3.05 0.13 o
11 3 0 0.12 0.12 0.03 o
3 11 0 0.32 0.34 0.04 o
3 4 3 0.40 0.40 0.08 o
4 3 3 5.11 5.13 0.35 o
0 5 3 8.50 8.53 0.48 o
0 11 1 16.86 16.77 0.60 o
5 2 3 34.03 33.87 1.29 o
2 5 3 23.91 23.79 0.99 o
6 10 0 11.49 11.88 0.36 o
10 6 0 0.31 0.32 0.03 o
10 5 1 36.87 37.92 0.86 o
5 10 1 0.00 0.00 0.03 o
2 11 1 5.48 5.64 0.26 o
11 2 1 44.34 45.60 1.00 o
9 3 2 16.78 17.29 0.53 o
3 9 2 15.90 16.39 0.51 o
1 6 3 4.24 4.21 0.34 o
6 1 3 0.08 0.07 0.02 o
0 12 0 8.59 8.28 0.32 o
7 7 2 8.47 8.42 0.38 o
5 11 0 3.87 3.77 0.17 o
11 5 0 1.59 1.54 0.10 o
5 4 3 14.81 14.15 0.66 o
4 5 3 47.84 45.70 1.56 o
8 6 2 8.04 7.78 0.32 o
6 8 2 0.55 0.53 0.06 o
0 10 2 23.13 22.37 0.74 o
2 12 0 0.84 0.84 0.06 o
12 2 0 3.40 3.42 0.16 o
4 11 1 60.32 61.15 1.59 o
11 4 1 1.33 1.35 0.13 o
3 6 3 0.11 0.11 0.06 o
6 3 3 0.30 0.30 0.09 o
2 10 2 18.23 18.19 0.74 o
10 2 2 0.24 0.24 0.05 o
9 5 2 4.55 4.48 0.26 o
5 9 2 8.46 8.32 0.41 o
