#------------------------------------------------------------------------------
#$Date: 2021-04-28 10:41:02 +0300 (Wed, 28 Apr 2021) $
#$Revision: 264624 $
#$URL: file:///home/coder/svn-repositories/cod/cif/1/56/21/1562192.cif $
#------------------------------------------------------------------------------
#
# This file is available in the Crystallography Open Database (COD),
# http://www.crystallography.net/
#
# All data on this site have been placed in the public domain by the
# contributors.
#
data_1562192
loop_
_publ_author_name
'Moetakef, Pouya'
'Larson, Amber M.'
'Hodges, Brenna C.'
'Zavalij, Peter'
'Gaskell, Karen J.'
'Piccoli, Philip M.'
'Rodriguez, Efrain E.'
_publ_section_title
;
 Synthesis and crystal chemistry of microporous titanates K (Ti,M)8O16
 where M=Sc--Ni
;
_journal_name_full               'Journal of Solid State Chemistry'
_journal_page_first              45
_journal_page_last               53
_journal_paper_doi               10.1016/j.jssc.2014.08.012
_journal_volume                  220
_journal_year                    2014
_chemical_compound_source        Synthesized
_chemical_formula_sum            'Fe1.52 K1.53 O16 Ti6.48'
_chemical_formula_weight         710.91
_space_group_crystal_system      tetragonal
_space_group_IT_number           87
_space_group_name_Hall           '-I 4'
_space_group_name_H-M_alt        'I 4/m'
_space_group_ssg_IT_number       87
_symmetry_cell_setting           tetragonal
_symmetry_Int_Tables_number      87
_symmetry_space_group_name_H-M   'I 4/m'
_cell_angle_alpha                90
_cell_angle_beta                 90
_cell_angle_gamma                90
_cell_formula_units_Z            1
_cell_length_a                   10.153214(97)
_cell_length_b                   10.153214(97)
_cell_length_c                   2.967320(33)
_cell_measurement_temperature    300
_cell_volume                     305.894(5)
_computing_cell_refinement       'Bruker AXS TOPAS 4.2'
_computing_structure_refinement  'Bruker AXS TOPAS 4.2'
_diffrn_ambient_temperature      300
_diffrn_measurement_device_type  'Bruker D8'
_diffrn_radiation_probe          x-ray
_diffrn_radiation_type           'Cu K\a'
_diffrn_radiation_wavelength     1.5418
_diffrn_reflns_limit_h_max       12
_diffrn_reflns_limit_h_min       0
_diffrn_reflns_limit_k_max       12
_diffrn_reflns_limit_k_min       0
_diffrn_reflns_limit_l_max       3
_diffrn_reflns_limit_l_min       0
_diffrn_source                   'Sealed X-ray tube'
_exptl_absorpt_coefficient_mu    53.887
_exptl_crystal_colour            Red
_exptl_crystal_density_diffrn    3.859
_pd_char_colour                  Red
_pd_meas_2theta_range_inc        0.0092
_pd_meas_2theta_range_max        140
_pd_meas_2theta_range_min        7
_pd_meas_number_of_points        14449
_pd_proc_2theta_range_inc        0.0092
_pd_proc_2theta_range_max        140
_pd_proc_2theta_range_min        7
_pd_proc_ls_background_function
;   One on X                                 125680(440)
   Chebychev polynomial, Coefficient  0      -2334(14)
                                      1      3585(17)
                                      2      -1874(11)
                                      3      988.4(63)
                                      4      -477.2(38)
                                      5      194.6(20)
                                      6      -69.5(13)

;
_pd_proc_ls_pref_orient_corr     '(Dir 1 : 0 0 1)     1.3247(19)'
_pd_proc_ls_prof_R_factor        3.52
_pd_proc_ls_prof_wR_expected     2.80
_pd_proc_ls_prof_wR_factor       4.56
_refine_ls_goodness_of_fit_all   1.63
_refine_ls_number_constraints    6
_refine_ls_number_parameters     25
_refine_ls_R_I_factor            2.011
_cod_data_source_file            JSSC-2014-220-45-1.cif
_cod_data_source_block           KTFO
_cod_depositor_comments
;
The following automatic conversions were performed:

data item '_geom_angle_publ_flag' value 'N' was changed to 'n' in
accordance with the built-in table derived from the CIF Core
dictionary named 'cif_core.dic' version 2.4.5 last updated on
2014-11-21 (20 times).

data item '_geom_bond_publ_flag' value 'N' was changed to 'n' in
accordance with the built-in table derived from the CIF Core
dictionary named 'cif_core.dic' version 2.4.5 last updated on
2014-11-21 (12 times).

Automatic conversion script
Id: cif_fix_values 8369 2020-08-20 11:38:08Z andrius 
;
_cod_original_cell_volume        305.8944(68)
_cod_original_sg_symbol_H-M      I4/m
_cod_database_code               1562192
loop_
_symmetry_equiv_pos_as_xyz
'x, y, z'
'-x, -y, z'
'-y, x, z'
'y, -x, z'
'x+1/2, y+1/2, z+1/2'
'-x+1/2, -y+1/2, z+1/2'
'-y+1/2, x+1/2, z+1/2'
'y+1/2, -x+1/2, z+1/2'
'-x, -y, -z'
'x, y, -z'
'y, -x, -z'
'-y, x, -z'
'-x+1/2, -y+1/2, -z+1/2'
'x+1/2, y+1/2, -z+1/2'
'y+1/2, -x+1/2, -z+1/2'
'-y+1/2, x+1/2, -z+1/2'
loop_
_atom_site_label
_atom_site_type_symbol
_atom_site_symmetry_multiplicity
_atom_site_fract_x
_atom_site_fract_y
_atom_site_fract_z
_atom_site_occupancy
_atom_site_B_iso_or_equiv
Ti1 Ti 8 0.646858(99) 0.16807(12) 0 0.81 0.459(22)
Fe1 Fe 8 0.646858(99) 0.16807(12) 0 0.19 0.459(22)
O1 O 8 0.66049(31) 0.03784(35) 0.5 1 0.459(22)
O2 O 8 0.65527(33) 0.29321(32) 0.5 1 0.459(22)
K1 K 4 0.5 0.5 0.2300(60) 0.2260(71) 0.459(22)
K2 K 2 0.5 0.5 0 0.313(14) 0.459(22)
loop_
_geom_angle_atom_site_label_1
_geom_angle_atom_site_label_2
_geom_angle_atom_site_label_3
_geom_angle
_geom_angle_publ_flag
Ti1 O1 O2 48.31(7) n
Ti1 O1 K1 40.6(2) n
Ti1 O1 K2 33.30(6) n
Ti1 O2 O1 49.55(7) n
Ti1 O2 K1 104.5(3) n
Ti1 O2 K2 93.22(6) n
Ti1 K1 O1 20.21(7) n
Ti1 K1 O2 30.34(9) n
Ti1 K1 K2 79.5(3) n
Ti1 K2 O1 17.27(1) n
Ti1 K2 O2 31.99(4) n
Ti1 K2 K1 90.0 n
K1 O1 O2 20.11(11) n
K1 O1 K2 7.5(2) n
K1 O2 O1 140.93(18) n
K1 O2 K2 12.5(4) n
K1 K2 O1 73.37(1) n
K1 K2 O2 60.53(3) n
K2 O1 O2 24.31(5) n
K2 O2 O1 134.90(9) n
loop_
_geom_bond_atom_site_label_1
_geom_bond_atom_site_label_2
_geom_bond_distance
_geom_bond_publ_flag
Ti1 O1 1.993(2) n
Ti1 O2 1.955(2) n
O1 Ti1 1.993(2) n
O1 O2 2.594(4) n
O2 Ti1 1.955(2) n
O2 O1 2.594(4) n
O2 K1 2.745(6) n
O2 K2 3.016(3) n
K1 K2 0.683(18) n
K1 O2 2.745(6) n
K2 K1 0.683(18) n
K2 O2 3.016(3) n
loop_
_refln_index_h
_refln_index_k
_refln_index_l
_refln_F_squared_calc
_refln_F_squared_meas
_refln_F_squared_sigma
_refln_observed_status
1 1 0 7.43 7.47 0.14 o
0 2 0 12.80 12.64 0.16 o
2 2 0 6.22 6.12 0.14 o
3 1 0 59.00 60.29 0.42 o
1 3 0 15.99 16.34 0.24 o
0 1 1 0.62 0.62 0.08 o
0 4 0 19.41 19.70 0.27 o
2 1 1 33.93 34.23 0.70 o
1 2 1 52.47 52.94 0.81 o
3 3 0 5.36 5.12 0.14 o
4 2 0 11.05 10.35 0.19 o
2 4 0 6.46 6.05 0.13 o
0 3 1 51.80 52.25 0.57 o
3 2 1 0.46 0.45 0.07 o
2 3 1 6.76 6.51 0.25 o
5 1 0 8.13 8.23 0.23 o
1 5 0 11.02 11.15 0.26 o
4 1 1 44.01 43.45 0.73 o
1 4 1 42.09 41.55 0.72 o
4 4 0 5.43 5.32 0.17 o
3 5 0 0.18 0.18 0.04 o
5 3 0 5.95 6.00 0.18 o
0 6 0 74.47 74.10 0.74 o
4 3 1 8.42 8.65 0.27 o
3 4 1 0.33 0.34 0.05 o
0 5 1 13.52 13.88 0.36 o
6 2 0 0.64 0.62 0.05 o
2 6 0 8.46 8.20 0.22 o
5 2 1 106.76 104.56 1.14 o
2 5 1 50.90 49.85 0.82 o
0 0 2 41.28 41.99 0.76 o
1 6 1 16.39 16.21 0.42 o
6 1 1 0.34 0.33 0.05 o
1 1 2 12.25 12.41 0.33 o
5 5 0 1.61 1.67 0.09 o
1 7 0 0.00 0.00 0.02 o
7 1 0 16.04 16.56 0.38 o
0 2 2 18.11 18.88 0.47 o
4 6 0 0.20 0.20 0.03 o
6 4 0 10.71 10.94 0.27 o
5 4 1 26.76 28.90 0.60 o
4 5 1 118.12 127.55 1.45 o
2 2 2 0.58 0.59 0.05 o
6 3 1 2.63 2.64 0.15 o
3 6 1 2.01 2.02 0.12 o
3 1 2 28.94 29.24 0.61 o
1 3 2 5.02 5.07 0.17 o
7 3 0 11.93 11.52 0.25 o
3 7 0 28.90 27.92 0.50 o
0 7 1 3.58 3.56 0.19 o
0 4 2 29.20 28.73 0.66 o
0 8 0 0.04 0.04 0.03 o
7 2 1 12.89 12.56 0.37 o
2 7 1 2.14 2.09 0.13 o
3 3 2 18.04 17.55 0.42 o
4 2 2 2.37 2.40 0.12 o
2 4 2 2.43 2.46 0.11 o
8 2 0 3.54 3.53 0.12 o
2 8 0 0.29 0.29 0.03 o
6 6 0 21.67 21.45 0.49 o
6 5 1 0.11 0.11 0.05 o
5 6 1 14.01 14.02 0.39 o
1 5 2 2.36 2.39 0.11 o
5 1 2 13.36 13.54 0.37 o
7 5 0 8.71 8.50 0.23 o
5 7 0 10.33 10.08 0.28 o
4 7 1 9.87 10.28 0.33 o
7 4 1 1.36 1.42 0.13 o
8 1 1 2.17 2.26 0.13 o
1 8 1 14.30 14.90 0.39 o
4 4 2 1.83 1.81 0.10 o
4 8 0 6.96 6.83 0.19 o
8 4 0 0.61 0.60 0.06 o
3 5 2 0.45 0.44 0.05 o
5 3 2 2.01 1.99 0.11 o
9 1 0 33.00 32.11 0.66 o
1 9 0 1.26 1.23 0.07 o
0 6 2 52.14 52.33 1.07 o
8 3 1 12.84 12.11 0.35 o
3 8 1 4.65 4.39 0.21 o
6 2 2 0.11 0.11 0.04 o
2 6 2 17.36 16.84 0.45 o
9 3 0 5.34 5.57 0.18 o
3 9 0 4.84 5.05 0.16 o
0 9 1 7.05 6.89 0.24 o
7 6 1 21.30 21.10 0.53 o
6 7 1 1.57 1.56 0.09 o
2 9 1 8.96 8.87 0.27 o
9 2 1 1.98 1.96 0.10 o
5 5 2 0.05 0.05 0.02 o
1 7 2 1.25 1.23 0.07 o
7 1 2 26.96 26.59 0.62 o
7 7 0 3.81 3.81 0.14 o
4 6 2 2.55 2.50 0.11 o
6 4 2 22.05 21.57 0.55 o
6 8 0 3.64 3.60 0.12 o
8 6 0 1.50 1.48 0.07 o
0 10 0 9.44 9.36 0.25 o
8 5 1 18.76 19.25 0.50 o
5 8 1 17.97 18.44 0.51 o
2 10 0 15.96 16.54 0.43 o
10 2 0 0.01 0.01 0.02 o
7 3 2 7.21 7.35 0.23 o
3 7 2 22.46 22.92 0.58 o
9 5 0 0.38 0.38 0.03 o
5 9 0 5.60 5.68 0.19 o
0 1 3 0.06 0.06 0.05 o
4 9 1 8.23 8.27 0.29 o
9 4 1 5.92 5.95 0.22 o
1 2 3 17.34 17.68 0.67 o
2 1 3 9.55 9.74 0.48 o
0 8 2 1.37 1.40 0.10 o
10 1 1 0.56 0.57 0.07 o
1 10 1 4.35 4.43 0.21 o
0 3 3 7.24 7.28 0.40 o
8 2 2 0.87 0.87 0.06 o
2 8 2 2.33 2.33 0.12 o
4 10 0 0.07 0.07 0.02 o
10 4 0 10.71 10.78 0.33 o
3 2 3 0.22 0.22 0.04 o
2 3 3 1.57 1.59 0.18 o
6 6 2 17.07 17.16 0.50 o
10 3 1 7.16 7.03 0.25 o
3 10 1 1.18 1.16 0.08 o
5 7 2 20.33 19.92 0.54 o
7 5 2 4.61 4.52 0.16 o
1 11 0 3.00 3.03 0.10 o
11 1 0 0.05 0.06 0.03 o
1 4 3 11.72 11.81 0.53 o
4 1 3 12.87 12.97 0.54 o
7 8 1 4.86 4.93 0.18 o
8 7 1 0.04 0.04 0.04 o
4 8 2 3.35 3.37 0.13 o
8 4 2 0.13 0.13 0.04 o
8 8 0 0.09 0.09 0.01 o
6 9 1 1.00 0.98 0.09 o
9 6 1 0.10 0.10 0.04 o
1 9 2 0.07 0.07 0.03 o
9 1 2 29.48 29.24 0.75 o
7 9 0 3.35 3.39 0.12 o
9 7 0 26.74 27.00 0.65 o
3 11 0 0.24 0.24 0.03 o
11 3 0 0.21 0.21 0.03 o
4 3 3 3.48 3.53 0.23 o
3 4 3 0.01 0.01 0.03 o
0 5 3 4.70 4.77 0.28 o
0 11 1 11.33 11.48 0.38 o
5 2 3 32.18 32.08 1.02 o
2 5 3 18.13 18.08 0.66 o
6 10 0 8.84 9.01 0.25 o
10 6 0 0.29 0.29 0.02 o
10 5 1 22.15 23.05 0.55 o
5 10 1 0.01 0.01 0.03 o
11 2 1 37.34 38.85 0.86 o
2 11 1 6.18 6.43 0.24 o
9 3 2 13.09 13.63 0.36 o
3 9 2 12.25 12.75 0.34 o
6 1 3 0.02 0.02 0.02 o
1 6 3 4.98 4.92 0.30 o
0 12 0 5.40 5.36 0.18 o
7 7 2 10.04 9.92 0.33 o
11 5 0 1.16 1.12 0.06 o
5 11 0 2.87 2.77 0.10 o
5 4 3 10.00 9.60 0.42 o
4 5 3 38.63 37.07 1.12 o
8 6 2 5.41 5.27 0.18 o
6 8 2 1.68 1.64 0.08 o
0 10 2 20.04 19.54 0.54 o
12 2 0 4.44 4.36 0.16 o
2 12 0 1.46 1.44 0.07 o
4 11 1 45.95 45.97 1.17 o
11 4 1 1.62 1.62 0.12 o
6 3 3 0.45 0.45 0.09 o
3 6 3 0.29 0.30 0.08 o
2 10 2 14.17 14.15 0.47 o
10 2 2 0.85 0.85 0.06 o
9 5 2 2.72 2.81 0.13 o
5 9 2 3.53 3.64 0.17 o
