#------------------------------------------------------------------------------
#$Date: 2021-07-04 04:49:46 +0300 (Sun, 04 Jul 2021) $
#$Revision: 266973 $
#$URL: file:///home/coder/svn-repositories/cod/cif/1/56/31/1563154.cif $
#------------------------------------------------------------------------------
#
# This file is available in the Crystallography Open Database (COD),
# http://www.crystallography.net/
#
# All data on this site have been placed in the public domain by the
# contributors.
#
data_1563154
loop_
_publ_author_name
'Gorelova, Liudmila A.'
'Pakhomova, Anna S.'
'Krzhizhanovskaya, Maria G.'
'Pankin, Dmitrii V.'
'Krivovichev, Sergey V.'
'Dubrovinsky, Leonid S.'
'Kasatkin, Anatoly V.'
_publ_section_title
;
 Crystal Structure Evolution of Slawsonite SrAl2Si2O8 and Paracelsian
 BaAl2Si2O8 upon Compression and Decompression
;
_journal_issue                   23
_journal_name_full               'The Journal of Physical Chemistry C'
_journal_page_first              13014
_journal_page_last               13023
_journal_paper_doi               10.1021/acs.jpcc.1c02949
_journal_volume                  125
_journal_year                    2021
_chemical_formula_sum            'Al2 O8 Si2 Sr'
_chemical_formula_weight         325.76
_space_group_crystal_system      monoclinic
_space_group_IT_number           14
_space_group_name_Hall           '-P 2ybc'
_space_group_name_H-M_alt        'P 1 21/c 1'
_audit_creation_method           SHELXL-2018/3
_cell_angle_alpha                90
_cell_angle_beta                 90.322(2)
_cell_angle_gamma                90
_cell_formula_units_Z            4
_cell_length_a                   8.3189(2)
_cell_length_b                   9.3438(15)
_cell_length_c                   8.8428(3)
_cell_measurement_reflns_used    942
_cell_measurement_temperature    293(2)
_cell_measurement_theta_max      19.216
_cell_measurement_theta_min      2.832
_cell_volume                     687.34(11)
_computing_structure_refinement  'SHELXL-2018/3 (Sheldrick, 2018)'
_diffrn_ambient_temperature      293(2)
_diffrn_measured_fraction_theta_full 0.347
_diffrn_measured_fraction_theta_max 0.190
_diffrn_measurement_device_type
'esperanto-CrysAlisPro-abstract goniometer imported esperanto images'
_diffrn_radiation_type           synchrotron
_diffrn_radiation_wavelength     0.41106
_diffrn_reflns_av_R_equivalents  0.0326
_diffrn_reflns_av_unetI/netI     0.0406
_diffrn_reflns_Laue_measured_fraction_full 0.347
_diffrn_reflns_Laue_measured_fraction_max 0.190
_diffrn_reflns_limit_h_max       12
_diffrn_reflns_limit_h_min       -12
_diffrn_reflns_limit_k_max       6
_diffrn_reflns_limit_k_min       -4
_diffrn_reflns_limit_l_max       12
_diffrn_reflns_limit_l_min       -12
_diffrn_reflns_number            942
_diffrn_reflns_point_group_measured_fraction_full 0.347
_diffrn_reflns_point_group_measured_fraction_max 0.190
_diffrn_reflns_theta_full        14.279
_diffrn_reflns_theta_max         19.216
_diffrn_reflns_theta_min         2.832
_exptl_absorpt_coefficient_mu    1.978
_exptl_crystal_colour            colorless
_exptl_crystal_density_diffrn    3.148
_exptl_crystal_density_meas      ?
_exptl_crystal_density_method    none
_exptl_crystal_description       isosymmetric
_exptl_crystal_F_000             624
_exptl_crystal_size_max          0.010
_exptl_crystal_size_mid          0.010
_exptl_crystal_size_min          0.005
_refine_diff_density_max         0.308
_refine_diff_density_min         -0.361
_refine_diff_density_rms         0.082
_refine_ls_extinction_method     none
_refine_ls_goodness_of_fit_ref   1.121
_refine_ls_hydrogen_treatment    undef
_refine_ls_matrix_type           full
_refine_ls_number_parameters     103
_refine_ls_number_reflns         562
_refine_ls_number_restraints     0
_refine_ls_restrained_S_all      1.121
_refine_ls_R_factor_all          0.0288
_refine_ls_R_factor_gt           0.0243
_refine_ls_shift/su_max          0.001
_refine_ls_shift/su_mean         0.000
_refine_ls_structure_factor_coef Fsqd
_refine_ls_weighting_details
'w=1/[\s^2^(Fo^2^)+(0.0083P)^2^+1.8999P] where P=(Fo^2^+2Fc^2^)/3'
_refine_ls_weighting_scheme      calc
_refine_ls_wR_factor_gt          0.0517
_refine_ls_wR_factor_ref         0.0575
_reflns_Friedel_coverage         0.000
_reflns_number_gt                504
_reflns_number_total             562
_reflns_threshold_expression     'I > 2\s(I)'
_cod_data_source_file            slav_p01.cif
_cod_data_source_block           shelx
_cod_depositor_comments
;
The following automatic conversions were performed:

data item '_exptl_crystal_density_meas' value 'none' was changed to
'?' -- the value is perceived as not measured.

Automatic conversion script
Id: cif_fix_values 7556 2019-12-06 15:28:31Z antanas 

 Adding full bibliography for 1563145--1563156.cif.
;
_cod_original_sg_symbol_H-M      'P 21/c'
_cod_database_code               1563154
_shelx_shelxl_version_number     2018/3
_shelx_space_group_comment
;
The symmetry employed for this shelxl refinement is uniquely defined
by the following loop, which should always be used as a source of
symmetry information in preference to the above space-group names.
They are only intended as comments.
;
_shelx_res_file
;
TITL slav_p01_s in P2(1)/c
    shelx.res
    created by SHELXL-2018/3 at 12:39:11 on 19-Jan-2021
CELL  0.41106   8.3189   9.3438   8.8428   90.000   90.322   90.000
ZERR     4.00   0.0002   0.0015   0.0003    0.000    0.002    0.000
LATT   1
SYMM  - X, 1/2 + Y, 1/2 - Z
SFAC O Al Si Sr
DISP O 0.00165 0.00179 4.1539
DISP Si 0.026465 0.022605 52.36784
DISP Al 0.019188 0.016298 37.75624
DISP Sr 0.242892 1.295112 3000.317
UNIT 32.00 8.00 8.00 4.00

OMIT 7 4 2
OMIT    -7   5   1
OMIT    -8   6   3
OMIT     8   4   3
OMIT     1   0   8
OMIT     2   3  10
OMIT -10 6 2
OMIT 0 1 7

MERG   2
FMAP   2
PLAN   100
BOND
LIST   10
ACTA
REM DAMP 5000
L.S.  20
REM EXTI    0.000000
WGHT    0.008300    1.899900
FVAR       2.50184
SR1   4    0.749382    0.411352    0.610617    11.00000    0.00867    0.00868 =
         0.01213   -0.00102   -0.00042   -0.00031
SI1   3    0.560663    0.421444    0.241234    11.00000    0.00515    0.01874 =
         0.00713    0.00144    0.00013    0.00006
SI2   3    1.056231    0.299589    0.940986    11.00000    0.00747    0.00824 =
         0.00861    0.00040   -0.00001    0.00051
AL1   2    1.069098    0.573804    0.767032    11.00000    0.00731    0.01382 =
         0.00662    0.00038    0.00053    0.00077
AL2   2    0.428950    0.194684    0.445561    11.00000    0.00684    0.01627 =
         0.00745   -0.00036   -0.00079    0.00100
O1    1    0.739751    0.425541    0.315550    11.00000    0.00753    0.02666 =
         0.00695   -0.00087    0.00108   -0.00217
O2    1    0.990755    0.406091    0.807624    11.00000    0.01527    0.00462 =
         0.01117    0.00315   -0.00244    0.00018
O3    1    1.054475    0.134098    0.881043    11.00000    0.01353
O4    1    0.443199    0.370961    0.376424    11.00000    0.01146    0.01814 =
         0.00947    0.00178    0.00555    0.00108
O5    1    0.560353    0.308751    0.100984    11.00000    0.00834    0.00964 =
         0.00980   -0.00306   -0.00256   -0.00067
O6    1    1.232638    0.346823    0.992293    11.00000    0.00845    0.00904 =
         0.01566   -0.00783   -0.00191   -0.00001
O7    1    0.929601    0.310407    1.079645    11.00000    0.01261
O8    1    0.494044    0.575909    0.190908    11.00000    0.01208
HKLF    4




REM  slav_p01_s in P2(1)/c
REM wR2 = 0.0575, GooF = S = 1.121, Restrained GooF = 1.121 for all data
REM R1 = 0.0243 for 504 Fo > 4sig(Fo) and 0.0288 for all 562 data
REM 103 parameters refined using 0 restraints

END

WGHT      0.0081      1.9246

REM Highest difference peak  0.308,  deepest hole -0.361,  1-sigma level  0.082
Q1    1   0.6845  0.4424  0.1021  11.00000  0.05    0.31
Q2    1   0.9555  0.3264  0.7755  11.00000  0.05    0.29
Q3    1   0.4140  0.3147  0.5680  11.00000  0.05    0.28
Q4    1   0.8507  0.4830  0.7817  11.00000  0.05    0.28
Q5    1   0.5156  0.3857  0.3461  11.00000  0.05    0.27
Q6    1   0.4769  0.3144  0.0920  11.00000  0.05    0.26
Q7    1   0.9289  0.4003  0.9612  11.00000  0.05    0.26
Q8    1   1.0138  0.0454  0.9024  11.00000  0.05    0.26
Q9    1   0.4011  0.3526  0.3119  11.00000  0.05    0.26
Q10   1   1.1797  0.4118  1.1588  11.00000  0.05    0.25
Q11   1   0.4934  0.4881  0.4669  11.00000  0.05    0.25
Q12   1   1.1403  0.6635  0.6988  11.00000  0.05    0.24
Q13   1   0.4568  0.1805  0.3307  11.00000  0.05    0.23
Q14   1   0.4414  0.4166  0.4993  11.00000  0.05    0.23
Q15   1   0.8334  0.2012  0.9999  11.00000  0.05    0.23
Q16   1   0.5587  0.4504  0.0241  11.00000  0.05    0.23
Q17   1   0.4943  0.2786  0.4133  11.00000  0.05    0.23
Q18   1   0.6820  0.3787  0.5583  11.00000  0.05    0.23
Q19   1   0.7034  0.4873  0.1942  11.00000  0.05    0.23
Q20   1   0.7014  0.3005  0.4736  11.00000  0.05    0.23
Q21   1   0.8806  0.2763  0.9744  11.00000  0.05    0.23
Q22   1   0.5822  0.5192  0.3994  11.00000  0.05    0.22
Q23   1   0.6088  0.5836  0.3796  11.00000  0.05    0.22
Q24   1   1.0069  0.2030  1.1490  11.00000  0.05    0.22
Q25   1   1.2612  0.3559  1.0674  11.00000  0.05    0.22
Q26   1   0.4788  0.3999  0.5805  11.00000  0.05    0.22
Q27   1   0.6596  0.3046  0.2738  11.00000  0.05    0.21
Q28   1   0.9472  0.2171  0.8765  11.00000  0.05    0.21
Q29   1   1.3242  0.4679  1.1158  11.00000  0.05    0.21
Q30   1   0.5137  0.5378  0.2372  11.00000  0.05    0.21
Q31   1   1.0187  0.5580  0.6819  11.00000  0.05    0.21
Q32   1   0.5221  0.5294  0.0420  11.00000  0.05    0.21
Q33   1   0.4828  0.2711  0.3630  11.00000  0.05    0.21
Q34   1   1.0894  0.4752  0.6491  11.00000  0.05    0.20
Q35   1   0.6887  0.2842  0.7571  11.00000  0.05    0.20
Q36   1   1.1106  0.2781  0.7693  11.00000  0.05    0.20
Q37   1   0.6452  0.2329  0.0882  11.00000  0.05    0.20
Q38   1   0.7570  0.3457  0.2432  11.00000  0.05    0.19
Q39   1   0.9744  0.4192  1.0434  11.00000  0.05    0.19
Q40   1   0.9340  0.3269  0.6882  11.00000  0.05    0.19
Q41   1   1.0072  0.4450  0.7714  11.00000  0.05    0.19
Q42   1   0.3980  0.5552  0.2438  11.00000  0.05    0.19
Q43   1   0.8996  0.3462  1.0357  11.00000  0.05    0.19
Q44   1   0.5945  0.4506  0.1337  11.00000  0.05    0.19
Q45   1   0.9666  0.2033  1.0548  11.00000  0.05    0.19
Q46   1   0.5638  0.2791  0.3092  11.00000  0.05    0.19
Q47   1   0.5326  0.1875  0.0392  11.00000  0.05    0.19
Q48   1   0.9580  0.3906  0.6610  11.00000  0.05    0.19
Q49   1   1.3511  0.3521  1.0455  11.00000  0.05    0.19
Q50   1   0.7186  0.5091  0.2519  11.00000  0.05    0.19
Q51   1   1.0284  0.1305  0.7993  11.00000  0.05    0.19
Q52   1   0.6149  0.3005  0.3964  11.00000  0.05    0.19
Q53   1   1.1041  0.5620  0.8270  11.00000  0.05    0.19
Q54   1   0.6452  0.6031  0.1951  11.00000  0.05    0.19
Q55   1   0.4980  0.4025  0.2952  11.00000  0.05    0.18
Q56   1   1.2790  0.4575  0.9765  11.00000  0.05    0.18
Q57   1   1.2050  0.1946  1.1374  11.00000  0.05    0.18
Q58   1   0.6510  0.3242  0.1848  11.00000  0.05    0.18
Q59   1   1.2531  0.2483  0.8759  11.00000  0.05    0.18
Q60   1   1.1565  0.1064  0.7953  11.00000  0.05    0.18
Q61   1   1.1451  0.1422  0.8258  11.00000  0.05    0.18
Q62   1   0.5616  0.1763  0.4649  11.00000  0.05    0.18
Q63   1   1.1171  0.4649  0.9960  11.00000  0.05    0.18
Q64   1   0.6449  0.3112  0.0232  11.00000  0.05    0.18
Q65   1   1.0945  0.0237  0.8475  11.00000  0.05    0.18
Q66   1   0.9812 -0.0362  0.9370  11.00000  0.05    0.18
Q67   1   0.4834  0.5041  0.1510  11.00000  0.05    0.17
Q68   1   1.1831  0.3582  0.9341  11.00000  0.05    0.17
Q69   1   0.4567  0.2766  0.2673  11.00000  0.05    0.17
Q70   1   1.2433  0.2962  0.7331  11.00000  0.05    0.17
Q71   1   0.7833  0.4239  0.7056  11.00000  0.05    0.17
Q72   1   0.6279  0.4243  0.3128  11.00000  0.05    0.17
Q73   1   1.1837  0.3973  0.9564  11.00000  0.05    0.17
Q74   1   1.1234  0.0099  0.9483  11.00000  0.05    0.17
Q75   1   1.2975  0.3718  0.9285  11.00000  0.05    0.17
Q76   1   0.5400  0.3918  0.1617  11.00000  0.05    0.17
Q77   1   1.2831  0.3801  0.8635  11.00000  0.05    0.17
Q78   1   0.3590  0.3654  0.4429  11.00000  0.05    0.17
Q79   1   0.7982  0.5194  0.6263  11.00000  0.05    0.17
Q80   1   0.4208  0.6544  0.2225  11.00000  0.05    0.17
Q81   1   0.6924  0.3510  0.3577  11.00000  0.05    0.16
Q82   1   0.9181  0.6115  0.8221  11.00000  0.05    0.16
Q83   1   0.8010  0.3332  0.7740  11.00000  0.05    0.16
Q84   1   0.8954  0.3757  0.8785  11.00000  0.05    0.16
Q85   1   0.3358  0.1981  0.3199  11.00000  0.05    0.16
Q86   1   1.1367  0.0627  0.9534  11.00000  0.05    0.16
Q87   1   0.5651  0.1494  0.0247  11.00000  0.05    0.16
Q88   1   0.4673  0.1805  0.5170  11.00000  0.05    0.16
Q89   1   0.3535  0.4652  0.3444  11.00000  0.05    0.16
Q90   1   0.4251  0.6987  0.2121  11.00000  0.05    0.15
Q91   1   1.1060  0.1227  1.0101  11.00000  0.05    0.15
Q92   1   1.1613  0.4075  0.7199  11.00000  0.05    0.15
Q93   1   0.4597  0.2118  0.1394  11.00000  0.05    0.15
Q94   1   0.4779  0.3601  0.1926  11.00000  0.05    0.15
Q95   1   0.4604  0.5274  0.3592  11.00000  0.05    0.15
Q96   1   0.8021  0.4562  0.2340  11.00000  0.05    0.15
Q97   1   0.7016  0.4673  0.4299  11.00000  0.05    0.15
Q98   1   0.3593  0.0536  0.4291  11.00000  0.05    0.14
Q99   1   0.4020  0.4339  0.4219  11.00000  0.05    0.14
Q100  1   0.3682  0.5389  0.1079  11.00000  0.05    0.14
;
_shelx_res_checksum              34854
_shelx_hkl_file
;
   0   1   3 23454.9 548.423   1
   0  -1  -4 17.6173 14.5917   1
   0  -1  -5 96647.6 1915.40   1
   0  -1  -6 38973.9 973.217   1
   0  -1  -7 17945.1 633.131   1
   0  -1  -8 23204.3 756.989   1
   0  -1  -9 11480.0 520.286   1
   0  -1 -10 6573.91 391.638   1
   0   2   5 2982.60 184.232   1
   0   2   6 13.1474 17.3553   1
   0  -2  -6 15.8166 11.3454   1
   0  -2  -7 2007.27 175.610   1
   0  -2  -8 23131.4 697.029   1
   0  -2  -9 5650.82 327.941   1
   0   3   5 149.132 41.4038   1
   0   3   6 6889.29 308.728   1
   0   3   7 10386.2 399.043   1
   0   4   7 21402.5 649.665   1
   0   4   8 20391.6 623.280   1
   0   5   8 3705.16 246.101   1
   1   0   1 2.43165 4.35022   1
  -1   0  -1 3.93470 8.26876   1
   1   0   2 233861. 4187.10   1
  -1   0  -4 63485.5 1459.34   1
  -1   0  -5 18.5929 27.0228   1
  -1   0  -6 26052.2 879.192   1
  -1   0  -7 16.9726 27.0887   1
  -1   0  -8 16904.6 735.729   1
   1  -1  -9 45.0341 49.8148   1
   1  -1  -8 9795.30 397.868   1
   1  -1  -7 34123.3 848.936   1
   1  -1  -6 3654.57 189.700   1
   1  -1  -5 16073.3 417.220   1
   1   1   2 10393.9 354.738   1
   1   1   3 78349.2 1623.20   1
   1   1   4 21372.1 666.139   1
  -1  -1  -4 20040.5 626.475   1
   1   1   5 25596.5 777.121   1
  -1  -1  -5 25164.5 765.410   1
  -1  -1  -6 12553.6 520.776   1
  -1  -1  -7 22451.8 775.419   1
  -1  -1  -8 5348.65 355.447   1
  -1  -1  -9 361.326 105.278   1
  -1  -1 -10 5670.47 398.425   1
   1   2   4 434.620 79.5879   1
   1   2   5 16650.0 587.311   1
  -1  -2  -5 15751.0 560.091   1
   1   2   6 8485.89 423.022   1
  -1  -2  -6 9857.62 429.172   1
  -1  -2  -7 3884.71 277.982   1
   1   2   7 3702.46 281.794   1
  -1  -2  -8 2340.13 221.356   1
  -1  -2  -9 4763.73 347.291   1
  -1  -2 -10 7968.97 453.446   1
   1   3   5 7051.06 341.353   1
   1   3   6 22036.8 725.339   1
   1   3   7 1105.02 143.804   1
   1   3   8 13204.9 569.543   1
  -1   4   7 2339.17 124.274   1
  -1   4   6 18488.5 472.587   1
   1   4   7 2222.38 208.211   1
   1   4   8 5894.72 368.787   1
   1   4   9 7715.80 422.155   1
  -1   5   8 1940.17 132.501   1
   1   5   8 7640.89 414.436   1
   1   5   9 2289.33 242.393   1
   2   0   0 30019.9 766.481   1
  -2   0   0 31809.2 772.852   1
  -2   0  -1 5.24784 18.8489   1
  -2   0  -3 14.0830 19.7315   1
   2   0   3 15.9774 33.9610   1
  -2   0  -4 50504.4 1330.43   1
  -2   0  -5 7.25045 11.8421   1
   2   0   5 19.7386 40.3832   1
  -2   0  -6 2873.43 288.542   1
  -2   0  -7 5.94034 22.5426   1
  -2   0  -8 30453.5 1110.42   1
   2  -1  -2 57625.3 1130.35   1
  -2   1   2 56121.9 1116.96   1
  -2   1   1 76675.2 1521.12   1
   2  -1  -1 73857.5 1523.42   1
   2  -1   0 7.85173 6.49305   1
  -2   1   0 38.3559 23.4125   1
  -2   1  -1 74072.8 1045.66   1
   2  -1   1 478.557 145.429   1
  -2   1  -2 66464.1 1543.72   1
   2   1   2 69062.1 1496.22   1
  -2  -1  -2 67142.3 1496.31   1
   2  -1   2 65285.8 1534.46   1
   2   1   3 62996.5 1438.03   1
  -2  -1  -3 55667.6 1373.04   1
   2   1   4 12229.1 558.161   1
  -2  -1  -4 12815.4 525.667   1
  -2  -1  -5 5493.87 362.975   1
   2   1   5 6195.48 388.282   1
   2   1   6 2766.47 266.995   1
  -2  -1  -6 3064.60 276.251   1
   2   1   7 8417.14 501.811   1
  -2  -1  -7 9269.47 510.630   1
  -2  -1  -8 1391.73 200.861   1
  -2  -1  -9 10712.0 594.344   1
  -2  -1 -10 24.1274 35.9411   1
  -2  -1 -11 240.756 96.6637   1
  -2   2   2 39201.8 867.922   1
   2   2   4 34646.9 1000.85   1
   2   2   5 2800.12 236.338   1
  -2  -2  -5 2187.69 219.843   1
  -2  -2  -6 8242.29 447.558   1
   2   2   6 7352.64 446.458   1
   2   2   7 101896. 2321.23   1
  -2  -2  -7 98796.4 2303.99   1
   2   2   8 921.381 158.803   1
  -2  -2  -8 1092.59 158.961   1
  -2  -2  -9 8682.55 506.883   1
  -2  -2 -11 13463.2 697.125   1
   2   3   5 5887.12 359.585   1
   2   3   6 65222.9 1644.74   1
   2   3   7 7912.02 476.857   1
   2   3   8 12460.0 621.047   1
   2   3   9 5271.77 397.667   1
   2   3  10 1000.61 174.699   1
   2   4   7 29206.2 994.325   1
   2   4   8 1218.80 188.805   1
   2   4   9 3137.33 300.631   1
   2   4  10 2289.15 257.221   1
   2   5   9 35381.1 1192.99   1
   2   5  10 46.6420 41.3986   1
   3   0   0 7.47747 17.4600   1
   3   0   1 13.5648 27.1863   1
  -3   0  -1 12.4385 11.6814   1
  -3   0  -2 4831.75 329.670   1
   3   0   2 4708.91 349.230   1
  -3   0  -3 19.0104 22.6953   1
   3   0   3 11.3546 38.6985   1
   3   0   4 68.3546 49.4387   1
  -3   0  -4 162.382 58.8329   1
  -3   0  -5 8.69894 25.4145   1
   3   0   5 37.6172 48.6979   1
   3   0   6 74082.2 1972.84   1
  -3   0  -6 74508.2 1982.20   1
  -3   0  -8 11.1105 31.4263   1
  -3   0  -9 29.5447 41.3943   1
  -3   0 -10 4484.53 422.888   1
   3  -1  -3 11989.0 404.002   1
  -3   1   2 26245.7 713.231   1
   3  -1  -2 27120.8 732.428   1
  -3   1   1 69135.7 1509.34   1
   3  -1  -1 67932.0 1526.90   1
   3  -1   0 36378.7 988.414   1
  -3   1   0 34102.6 957.463   1
   3  -1   1 55941.7 1407.31   1
  -3   1  -2 9661.93 500.350   1
  -3  -1  -2 10624.7 480.253   1
   3  -1   2 9383.00 486.516   1
  -3  -1  -3 14173.3 604.839   1
   3   1   3 14187.4 626.399   1
  -3   1  -3 13548.8 649.118   1
   3  -1   3 14389.1 649.417   1
   3  -1   4 48913.6 1402.41   1
  -3   1  -4 45991.1 1421.20   1
   3   1   4 44283.8 1348.76   1
  -3  -1  -4 48258.8 1311.11   1
  -3  -1  -5 14699.1 660.325   1
   3   1   5 14157.1 689.538   1
  -3   1  -5 14299.8 724.917   1
   3   1   6 2568.54 279.796   1
  -3   1  -6 2436.37 296.119   1
  -3  -1  -6 2255.83 260.203   1
   3   1   7 57984.6 1695.78   1
  -3  -1  -7 58821.9 1656.83   1
  -3  -1  -8 1683.97 234.565   1
   3   1   8 1691.11 251.533   1
  -3  -1  -9 1540.02 224.306   1
  -3  -1 -10 1.89266 14.3646   1
  -3  -1 -11 356.233 118.082   1
   3  -2  -4 44944.4 952.825   1
   3  -2  -3 59063.1 1251.98   1
  -3   2   3 59002.4 1236.62   1
  -3   2   2 56025.1 1256.33   1
   3  -2  -2 54954.1 1248.51   1
   3  -2  -1 81662.3 1764.74   1
  -3   2   0 530.287 95.3998   1
   3  -2   0 225.965 71.5065   1
  -3   2  -1 111115. 2404.62   1
   3   2   4 56288.1 1517.16   1
   3   2   5 18441.9 772.736   1
  -3  -2  -5 18441.2 769.621   1
  -3  -2  -6 4342.13 359.009   1
   3   2   6 4460.70 372.444   1
  -3  -2  -7 727.911 152.054   1
   3   2   7 638.285 157.834   1
  -3  -2  -8 1344.03 211.577   1
   3   2   8 1130.01 196.258   1
  -3  -2  -9 68282.7 1940.24   1
   3   2   9 71597.0 1998.25   1
  -3  -2 -10 1637.91 251.216   1
  -3  -2 -11 354.846 120.483   1
  -3   3   4 192655. 3457.74   1
  -3   3   3 29229.9 785.620   1
  -3   3   2 11628.8 457.433   1
   3   3   5 12682.8 623.278   1
   3   3   6 420.580 114.595   1
   3   3   7 224.266 80.5491   1
   3   3   8 8697.76 565.471   1
   3   3   9 5506.15 445.470   1
   3   3  10 40082.1 1375.75   1
  -3   4   5 5196.07 222.225   1
   3   4   7 13506.8 692.096   1
   3   4   8 546.841 141.624   1
   3   4   9 5848.77 467.242   1
  -3   5   6 2207.37 141.440   1
  -4   0   0 208497. 4103.97   1
   4   0   0 212694. 4134.44   1
  -4   0  -1 16.9543 39.3546   1
   4   0   1 5.11511 17.7203   1
   4   0   2 2.86904 27.3994   1
  -4   0  -3 15.9168 32.3312   1
  -4   0  -4 35494.0 1210.75   1
   4   0   4 33172.5 1204.78   1
   4   0   5 3.59657 27.2967   1
  -4   0  -5 10.4771 53.5606   1
   4   0   6 5.69098 16.6254   1
  -4   0  -6 13.1818 20.2126   1
  -4   0  -7 28.3547 39.6918   1
  -4   0  -8 4111.69 417.523   1
   4   0   8 3382.74 393.520   1
  -4   0  -9 114.663 102.987   1
  -4   0 -10 15742.0 905.191   1
   4  -1  -4 10817.2 430.020   1
   4  -1  -3 10789.7 451.914   1
  -4   1   2 8988.18 430.007   1
   4  -1  -2 9922.57 456.022   1
  -4   1   1 22704.9 756.174   1
   4  -1  -1 23261.7 803.865   1
  -4   1   0 305.575 76.9592   1
   4  -1   0 283.711 77.2165   1
  -4   1  -1 23435.4 862.260   1
   4  -1   1 22079.8 864.840   1
   4   1   1 24796.6 863.380   1
   4   1   2 3209.81 279.164   1
  -4   1  -2 2612.99 276.501   1
  -4  -1  -2 2298.72 260.660   1
   4  -1   2 3004.45 292.763   1
  -4   1  -3 10326.6 597.049   1
   4   1   3 10086.4 570.967   1
   4  -1   3 9387.18 583.259   1
  -4  -1  -3 11032.2 576.432   1
  -4   1  -4 2998.16 351.565   1
   4   1   4 3795.74 347.777   1
  -4  -1  -4 3106.59 324.206   1
   4  -1   4 3876.03 363.581   1
  -4  -1  -5 38763.3 1293.38   1
   4   1   5 38801.5 1350.35   1
  -4   1  -5 40985.8 1416.81   1
   4  -1   5 39548.8 1379.55   1
  -4  -1  -6 18809.6 856.618   1
  -4   1  -6 19412.4 966.826   1
   4  -1   6 19098.4 931.829   1
   4   1   6 17873.7 886.541   1
   4   1   7 13.7662 25.8570   1
  -4   1  -7 42.5813 52.8861   1
  -4  -1  -7 32.4860 41.8496   1
  -4  -1  -8 1145.27 202.056   1
  -4   1  -8 1113.33 242.450   1
   4   1   8 1438.79 241.381   1
   4   1   9 19261.1 985.424   1
  -4  -1  -9 18261.6 906.283   1
  -4  -1 -10 2298.56 303.786   1
  -4  -1 -11 40.6544 48.4886   1
   4  -2  -6 318.148 50.1691   1
   4  -2  -5 6228.72 283.185   1
   4  -2  -4 6642.09 325.809   1
  -4   2   3 16827.6 566.375   1
   4  -2  -3 16145.0 579.507   1
   4  -2  -2 414.902 92.2082   1
  -4   2   2 487.260 95.4907   1
  -4   2   1 29491.5 923.442   1
   4  -2   0 27982.8 934.535   1
   4  -2   1 41097.7 1272.70   1
  -4   2  -1 44730.3 1314.83   1
  -4   2  -2 794.270 151.706   1
   4  -2   2 743.547 154.530   1
  -4   2  -3 35686.4 1236.93   1
   4  -2   3 35078.2 1233.33   1
   4   2   4 14876.7 735.148   1
  -4  -2  -4 14849.6 724.637   1
  -4   2  -4 15367.1 787.525   1
  -4  -2  -5 557.831 126.999   1
   4   2   5 294.998 90.0435   1
   4   2   6 1062.74 194.980   1
  -4  -2  -6 900.723 180.720   1
  -4  -2  -7 20963.0 946.411   1
   4   2   7 19644.4 947.194   1
   4   2   8 58.1559 49.0131   1
  -4  -2  -8 1.94696 45.9448   1
  -4  -2  -9 115.075 78.5294   1
   4   2   9 150.497 98.7589   1
  -4  -2 -10 7307.68 569.693   1
   4   2  10 6891.58 565.793   1
  -4  -2 -11 10410.2 706.977   1
  -4  -2 -12 173.122 101.523   1
  -4   3   4 19946.2 596.791   1
  -4   3   3 798.807 119.595   1
  -4   3   2 24988.3 833.485   1
  -4   3   1 352.588 88.5864   1
  -4   3   0 880.989 157.927   1
   4   3   6 48905.7 1562.54   1
   4   3   7 142.696 75.7947   1
   4   3   8 5734.26 496.602   1
   4   3   9 90.3475 26.7030   1
   4   3  10 4002.09 406.989   1
   4   3  11 51.2044 37.7914   1
  -4   4   5 1285.06 121.838   1
  -4   4   4 10416.3 443.920   1
  -4   4   3 23274.8 783.310   1
   4   4   8 2911.17 352.984   1
   4   4   9 4.28121 33.8195   1
   4   4  10 7112.45 569.661   1
   4   4  11 5797.28 518.003   1
  -4   5   6 4983.63 240.429   1
  -4   5   5 46553.8 1152.78   1
  -4   6   7 146.661 34.8897   1
  -5   0   0 28.0560 13.7501   1
   5   0   0 17.7723 24.2849   1
   5   0   1 41.6145 56.5480   1
   5   0   2 226673. 4736.80   1
  -5   0  -2 231848. 4691.80   1
  -5   0  -3 41.1553 48.7012   1
  -5   0  -4 64522.2 1897.63   1
   5   0   4 66375.7 1962.78   1
  -5   0  -6 6796.82 544.422   1
   5   0   6 6715.63 566.573   1
  -5   0  -7 20.9821 46.8239   1
   5   0   7 100.818 81.4800   1
   5   0   8 22158.9 1115.91   1
  -5   0  -8 22157.0 1114.52   1
  -5   0 -10 14078.5 891.006   1
  -5   0 -11 70.9614 88.8307   1
   5  -1  -4 11361.9 519.696   1
   5  -1  -3 70693.6 1724.62   1
   5  -1  -2 30068.3 1030.27   1
  -5   1   2 33350.8 1029.47   1
   5  -1  -1 346.316 87.8893   1
  -5   1   1 259.361 84.9722   1
  -5   1   0 4734.39 360.438   1
   5  -1   1 82.1671 55.8868   1
  -5   1  -1 324.446 99.7713   1
  -5  -1  -2 14666.8 733.235   1
   5   1   2 14530.7 739.800   1
   5  -1   2 15653.4 776.971   1
  -5   1  -2 15031.8 752.134   1
   5  -1   3 54079.7 1729.97   1
  -5   1  -3 56608.5 1726.43   1
   5   1   3 52151.0 1690.31   1
  -5  -1  -3 57300.8 1681.57   1
   5   1   4 1876.95 278.880   1
  -5  -1  -4 2144.34 271.240   1
   5  -1   4 2035.86 279.945   1
  -5   1  -4 2313.13 291.481   1
  -5   1  -5 37746.3 1444.76   1
   5  -1   5 41172.2 1472.39   1
  -5  -1  -5 41134.8 1413.49   1
   5   1   5 37879.8 1446.24   1
  -5  -1  -6 1156.48 216.204   1
  -5   1  -6 1446.87 272.927   1
   5   1   6 1255.24 258.363   1
   5  -1   6 1480.74 251.484   1
  -5  -1  -7 15910.5 839.318   1
  -5   1  -7 14453.4 891.255   1
   5  -1   7 15471.6 894.464   1
   5   1   7 15255.9 904.199   1
   5   1   8 15113.0 864.703   1
  -5  -1  -8 12611.4 791.029   1
  -5   1  -8 13745.2 889.314   1
  -5  -1  -9 626.846 157.002   1
   5   1   9 359.255 118.789   1
  -5   1  -9 608.345 191.986   1
   5   1  10 8163.28 678.637   1
  -5  -1 -10 7496.55 647.374   1
  -5  -1 -11 19293.0 1049.77   1
  -5  -1 -12 201.748 126.456   1
   5  -2  -7 1577.54 139.268   1
   5  -2  -6 10198.6 423.038   1
   5  -2  -5 8282.30 405.305   1
   5  -2  -4 4937.13 320.748   1
   5  -2  -3 479.792 111.987   1
  -5   2   3 529.874 110.391   1
  -5   2   2 408.499 104.024   1
   5  -2  -2 282.731 86.3921   1
  -5   2   1 39849.1 1259.92   1
   5  -2  -1 43501.1 1283.87   1
  -5   2   0 2530.19 270.231   1
   5  -2   0 2106.01 247.062   1
  -5   2  -1 20971.8 897.087   1
   5  -2   1 22196.4 912.293   1
  -5   2  -2 460.779 132.902   1
   5  -2   2 456.378 121.288   1
   5  -2   3 336.352 118.734   1
  -5   2  -3 87.7732 67.6572   1
  -5  -2  -4 10729.5 658.779   1
   5  -2   4 9091.72 661.687   1
   5   2   4 9687.33 625.889   1
  -5   2  -4 9825.09 672.712   1
   5  -2   5 22534.9 1075.60   1
  -5  -2  -5 22187.6 1032.19   1
   5   2   5 23295.3 1052.56   1
  -5   2  -5 25268.5 1133.58   1
  -5  -2  -6 12697.0 743.779   1
   5   2   6 13083.1 780.012   1
   5   2   8 3965.67 450.214   1
  -5  -2  -8 4313.99 447.877   1
  -5  -2  -9 598.441 169.896   1
   5   2   9 59.3020 37.8878   1
   5   2  10 8723.32 675.082   1
  -5  -2 -10 9175.08 710.156   1
  -5  -2 -11 1628.32 299.819   1
   5   2  11 1898.69 332.566   1
  -5  -2 -12 1896.39 312.945   1
   5  -3  -5 8154.12 382.230   1
  -5   3   4 611.634 105.130   1
   5  -3  -4 624.705 107.839   1
   5  -3  -3 6208.45 388.361   1
  -5   3   3 6381.14 393.864   1
   5  -3  -2 5231.90 358.458   1
  -5   3   2 5004.07 358.978   1
   5  -3  -1 1683.84 200.920   1
  -5   3   1 1599.67 211.558   1
   5  -3   0 161385. 3474.57   1
  -5   3   0 160368. 3521.40   1
   5  -3   1 673.973 161.914   1
  -5   3  -1 767.494 185.537   1
  -5   3  -2 5778.08 506.473   1
   5   3   6 28964.9 1234.73   1
   5   3   7 4387.28 473.116   1
   5   3   8 4770.70 480.014   1
   5   3   9 852.732 221.951   1
   5   3  10 1229.97 247.835   1
   5   3  11 3117.09 407.147   1
   5   3  12 297.231 153.914   1
  -5   4   5 43535.5 1106.79   1
  -5   4   4 40.5176 24.7220   1
  -5   4   3 36805.9 1143.49   1
  -5   4   2 22227.8 886.285   1
  -5   4   1 3060.89 316.275   1
   5   4   9 16481.2 949.187   1
   5   4  10 9076.48 706.818   1
   5   4  11 7758.02 637.946   1
  -5   5   6 1547.02 148.165   1
  -5   5   5 902.900 125.529   1
  -5   6   6 13821.4 535.658   1
   6   0   0 236255. 4911.10   1
  -6   0   0 237419. 4883.23   1
   6   0   1 11.5859 58.6216   1
  -6   0  -1 1.83435 31.1306   1
   6   0   2 2862.35 366.898   1
  -6   0  -2 3405.93 354.770   1
   6   0   3 27.4345 55.7787   1
  -6   0  -4 17331.4 897.080   1
   6   0   4 16021.6 925.859   1
   6   0   5 7.71027 29.7961   1
  -6   0  -6 63923.4 2061.76   1
   6   0   6 63913.5 2129.43   1
  -6   0  -7 7.89369 54.0790   1
   6   0   8 15374.2 976.095   1
  -6   0  -8 16809.6 982.545   1
   6   0   9 85.4490 88.7133   1
  -6   0 -10 1796.92 303.159   1
   6  -1  -4 1661.20 214.377   1
   6  -1  -3 36946.6 1202.70   1
  -6   1   2 10690.2 590.504   1
   6  -1  -2 11283.4 614.152   1
   6  -1  -1 20417.5 896.494   1
  -6   1   1 19208.5 855.802   1
   6  -1   0 4748.84 415.553   1
  -6   1   0 3619.01 381.286   1
  -6   1  -1 7753.36 545.154   1
   6  -1   1 8769.41 608.130   1
  -6  -1  -2 3641.00 391.817   1
  -6   1  -2 3548.89 386.435   1
   6  -1   2 3739.78 381.646   1
   6   1   2 4144.97 396.762   1
  -6  -1  -3 17529.1 874.276   1
  -6   1  -3 16655.1 896.861   1
   6   1   3 14234.5 864.490   1
   6  -1   3 15840.3 909.371   1
   6  -1   4 2790.49 378.956   1
   6   1   4 3268.96 377.699   1
  -6  -1  -4 2926.81 349.851   1
  -6   1  -4 3261.47 376.305   1
   6  -1   5 17675.1 968.499   1
  -6  -1  -5 18917.8 964.067   1
  -6   1  -5 18513.1 1000.98   1
   6   1   5 16819.7 998.953   1
   6  -1   6 6940.88 607.790   1
   6   1   6 6643.88 592.430   1
  -6  -1  -6 6369.27 559.212   1
  -6   1  -6 6486.96 602.805   1
  -6  -1  -7 5218.64 521.520   1
  -6   1  -7 5664.24 576.643   1
   6  -1   7 5512.48 567.494   1
   6   1   7 5407.30 546.329   1
  -6  -1  -8 12176.3 837.628   1
   6  -1   8 12220.8 869.040   1
  -6   1  -8 12985.6 913.612   1
   6   1   8 12739.0 882.071   1
   6   1   9 6118.54 584.588   1
  -6  -1  -9 5468.69 564.881   1
  -6   1  -9 5523.63 612.469   1
   6   1  10 2730.50 405.192   1
  -6  -1 -10 3181.51 431.116   1
  -6  -1 -11 6206.06 616.854   1
   6  -2  -8 12759.3 487.370   1
   6  -2  -7 4898.05 301.832   1
   6  -2  -6 2567.14 235.417   1
   6  -2  -5 1419.81 181.368   1
   6  -2  -4 4313.40 335.182   1
  -6   2   3 55660.2 1524.61   1
   6  -2  -3 54610.5 1566.84   1
  -6   2   2 13151.6 657.574   1
   6  -2  -2 13859.1 689.549   1
  -6   2   1 3539.38 334.481   1
   6  -2  -1 2941.90 324.266   1
   6  -2   0 745.872 154.292   1
  -6   2   0 669.184 152.495   1
   6  -2   1 109.945 92.7073   1
  -6   2  -1 27.4823 12.2193   1
  -6   2  -2 8582.14 620.809   1
   6  -2   2 8772.34 624.829   1
   6  -2   3 81413.6 2344.56   1
  -6   2  -3 83450.4 2385.46   1
   6   2   4 16.3866 55.2395   1
   6  -2   4 7.34153 21.4471   1
   6   2   5 1886.68 314.058   1
  -6   2  -5 1929.89 338.975   1
  -6  -2  -5 2162.81 312.373   1
   6  -2   5 2399.63 338.646   1
   6  -2   6 112.431 86.3100   1
  -6   2  -6 372.372 143.714   1
  -6  -2  -6 261.617 99.2018   1
   6   2   6 262.468 120.894   1
  -6  -2  -7 4168.11 469.941   1
   6   2   7 3778.63 463.562   1
  -6   2  -7 3400.30 462.942   1
  -6  -2  -8 16172.9 956.357   1
   6   2   8 15283.7 972.796   1
  -6  -2  -9 19.5058 61.0520   1
   6   2  10 183.555 91.6357   1
  -6  -2 -10 659.151 203.311   1
  -6  -2 -11 5530.58 583.304   1
   6   2  11 5924.44 625.208   1
  -6  -2 -12 3.17080 69.4698   1
   6  -3  -6 1912.68 194.929   1
   6  -3  -5 719.788 127.157   1
   6  -3  -4 3998.70 327.259   1
  -6   3   4 4076.01 325.666   1
   6  -3  -3 8219.30 490.737   1
  -6   3   3 7900.47 463.475   1
   6  -3  -2 40042.9 1270.33   1
  -6   3   2 36926.2 1237.91   1
   6  -3  -1 8922.00 567.232   1
  -6   3   1 8627.30 567.034   1
  -6   3   0 11.3807 27.6187   1
   6  -3   0 189.282 83.7356   1
   6  -3   1 8552.79 589.732   1
  -6   3  -1 7201.78 603.458   1
   6  -3   2 69200.2 2054.86   1
  -6   3  -2 65680.5 2100.24   1
  -6   3  -3 2846.14 383.682   1
   6  -3   3 2977.17 392.717   1
   6   3   7 4388.67 491.550   1
   6   3   8 20404.3 1127.87   1
   6   3   9 2809.29 402.114   1
   6   3  10 8287.38 705.848   1
   6   3  11 198.756 133.963   1
  -6   4   5 26129.5 846.479   1
  -6   4   4 8261.24 472.008   1
  -6   4   3 40347.9 1276.17   1
  -6   4   2 24.9185 46.6120   1
  -6   4   1 28.3982 20.3259   1
  -6   4   0 22654.6 1048.03   1
  -6   5   6 977.827 130.371   1
  -6   5   5 15132.5 629.642   1
  -6   5   3 6443.71 470.509   1
  -6   6   6 11436.3 525.224   1
  -6   6   5 2898.41 283.768   1
   7   0  -1 8.30594 31.5196   1
  -7   0   0 10.4027 58.3750   1
   7   0   0 11.0528 27.3978   1
  -7   0  -1 56.5237 87.8370   1
   7   0   1 116.480 83.5673   1
  -7   0  -2 16674.6 918.641   1
   7   0   2 18228.5 990.747   1
  -7   0  -4 1990.45 341.452   1
   7   0   4 2142.48 350.620   1
  -7   0  -5 13.2048 20.0450   1
  -7   0  -6 18983.6 1063.02   1
   7   0   6 17149.6 1100.30   1
   7   0   7 41.0261 69.1457   1
   7   0   8 6211.43 639.667   1
  -7   0  -8 5982.53 617.655   1
   7  -1  -4 15391.1 766.797   1
   7  -1  -3 10707.5 642.879   1
   7  -1  -2 2516.42 311.282   1
  -7   1   1 14198.3 767.260   1
   7  -1  -1 14876.5 810.861   1
   7  -1   0 15066.2 864.988   1
  -7   1  -1 4943.72 498.481   1
   7  -1   1 6982.10 586.737   1
  -7  -1  -2 1461.56 247.023   1
  -7   1  -2 1448.58 246.198   1
   7  -1   2 1795.74 281.330   1
   7   1   2 1531.70 270.559   1
  -7   1  -3 16543.9 935.173   1
   7   1   3 15883.0 952.577   1
  -7  -1  -3 17270.0 948.054   1
   7  -1   3 15397.2 951.726   1
  -7  -1  -4 15169.5 917.367   1
  -7   1  -4 13327.3 887.159   1
   7  -1   4 15168.3 945.907   1
  -7  -1  -5 89.3691 80.5387   1
   7  -1   5 167.859 117.642   1
   7   1   5 193.355 111.408   1
  -7   1  -5 253.489 135.229   1
  -7  -1  -6 5971.26 606.233   1
  -7   1  -6 6625.07 641.238   1
   7  -1   6 6495.62 636.514   1
   7   1   6 5675.37 592.511   1
   7  -1   7 20873.1 1218.76   1
  -7  -1  -7 21135.7 1151.71   1
  -7   1  -7 19907.6 1190.22   1
   7   1   7 20975.8 1189.37   1
   7   1   8 220.487 154.647   1
  -7  -1  -8 43.0470 40.4561   1
  -7   1  -8 44.1210 90.4770   1
   7  -1   8 61.8866 26.1504   1
  -7  -1  -9 22.5085 24.4579   1
  -7   1  -9 196.144 117.991   1
   7   1   9 91.7583 111.450   1
   7  -2  -7 684.309 128.568   1
   7  -2  -6 3273.94 300.332   1
   7  -2  -5 15474.4 724.227   1
   7  -2  -4 4679.19 402.260   1
  -7   2   3 17334.9 815.744   1
   7  -2  -3 18466.0 869.727   1
  -7   2   2 12997.1 702.137   1
   7  -2  -2 12341.2 717.576   1
  -7   2   1 28411.9 1153.45   1
   7  -2  -1 29875.1 1211.54   1
  -7   2   0 8.08171 35.4133   1
   7  -2   0 15.6175 25.8660   1
  -7   2  -1 24579.6 1143.76   1
   7  -2   1 24964.8 1179.03   1
  -7   2  -2 10280.3 722.537   1
   7  -2   2 9442.83 704.142   1
   7  -2   3 12779.8 814.116   1
  -7   2  -3 11201.5 819.432   1
   7  -2   4 4129.18 499.779   1
  -7   2  -4 4572.96 528.029   1
  -7  -2  -5 10898.0 794.562   1
   7  -2   5 12240.1 855.535   1
  -7   2  -5 11224.6 825.201   1
   7   2   5 10596.5 819.696   1
  -7   2  -6 1799.56 313.122   1
  -7  -2  -6 2209.29 350.806   1
   7   2   6 1888.17 335.134   1
   7  -2   6 1786.47 360.537   1
   7  -2   7 1408.29 310.359   1
  -7  -2  -7 1989.84 337.474   1
   7   2   7 1370.68 297.708   1
  -7   2  -7 1882.47 357.398   1
  -7  -2  -8 1543.06 294.844   1
   7   2   8 540.499 158.886   1
  -7  -2  -9 18010.2 1115.56   1
   7   2   9 19032.8 1190.86   1
   7   2  10 140.479 68.8408   1
   7  -3  -6 1363.35 182.757   1
   7  -3  -5 399.859 102.922   1
  -7   3   4 49936.5 1498.94   1
   7  -3  -4 53579.3 1536.58   1
  -7   3   3 3095.76 316.864   1
   7  -3  -3 2989.95 302.831   1
   7  -3  -2 2306.63 290.732   1
  -7   3   2 2569.06 297.911   1
   7  -3  -1 284.276 106.441   1
  -7   3   1 299.384 108.991   1
   7  -3   0 24291.6 1098.34   1
  -7   3   0 24881.8 1132.38   1
  -7   3  -1 14.1935 29.3218   1
   7  -3   1 40.1952 51.8047   1
  -7   3  -2 1078.87 254.639   1
   7  -3   2 796.531 194.148   1
  -7   3  -3 143.936 133.270   1
   7  -3   3 383.232 119.519   1
   7  -3   4 33991.9 1532.12   1
  -7   3  -4 35207.6 1585.51   1
  -7   3  -5 26.2609 49.8292   1
   7   3   8 12416.8 923.647   1
   7   3   9 298.606 156.375   1
   7   3  10 10688.8 886.243   1
  -7   4   5 5040.22 383.920   1
   7  -4  -4 1417.50 208.640   1
  -7   4   4 1496.07 213.575   1
   7  -4  -3 5981.51 472.025   1
  -7   4   3 5765.57 469.652   1
   7  -4  -2 4911.64 425.611   1
  -7   4   2 4950.51 440.936   1
   7  -4  -1 19532.2 950.327   1
  -7   4   1 20225.2 969.489   1
  -7   4   0 88.2282 52.2599   1
   7  -4   0 69.8662 46.3390   1
  -7   4  -1 15699.5 915.788   1
  -7   4  -2 58.9617 71.7444   1
  -7   5   5 1323.38 188.986   1
  -7   5   4 2383.50 274.689   1
  -7   5   3 3230.50 350.810   1
  -7   5   2 908.030 193.561   1
  -7   5   1 192.717 124.649   1
  -7   6   5 633.630 144.622   1
  -7   6   4 6052.00 476.778   1
   8   0   0 1736.68 305.023   1
   8   0   2 908.534 236.191   1
  -8   0  -2 629.637 174.986   1
  -8   0  -4 18818.0 1100.57   1
   8   0   4 18466.1 1153.35   1
  -8   0  -6 11875.5 922.561   1
   8   0   6 11454.7 941.425   1
   8  -1  -3 1509.75 263.857   1
   8  -1  -2 10895.4 732.622   1
  -8   1   1 14125.6 830.694   1
   8  -1  -1 14585.2 877.957   1
  -8   1   0 671.632 174.133   1
   8  -1   0 1314.23 256.479   1
  -8   1  -1 22225.9 1116.17   1
   8  -1   1 22480.9 1177.77   1
  -8   1  -2 16878.6 1007.67   1
   8  -1   2 18113.3 1053.38   1
  -8  -1  -3 6825.58 611.119   1
  -8   1  -3 6192.04 565.714   1
   8   1   3 5742.92 609.374   1
   8  -1   3 6817.35 642.749   1
  -8  -1  -4 16135.5 1005.59   1
  -8   1  -4 13956.6 946.339   1
   8   1   4 16648.7 1086.09   1
   8  -1   4 14443.7 1014.94   1
  -8  -1  -5 10330.5 808.690   1
  -8   1  -5 9919.60 799.714   1
   8   1   5 11034.5 858.354   1
   8  -1   5 10172.7 841.827   1
   8  -1   6 7460.58 727.786   1
  -8  -1  -6 7388.32 720.724   1
  -8   1  -6 7278.67 711.675   1
   8   1   6 7060.89 737.066   1
   8  -1   7 5033.27 613.476   1
  -8  -1  -7 6072.89 644.876   1
  -8   1  -7 5083.58 623.585   1
   8   1   7 4923.69 600.014   1
   8  -2  -5 2748.44 326.519   1
   8  -2  -4 12620.7 747.946   1
   8  -2  -3 942.728 197.557   1
  -8   2   2 18494.3 921.008   1
   8  -2  -2 17879.9 964.921   1
  -8   2   1 53072.4 1783.87   1
   8  -2  -1 54498.4 1853.79   1
  -8   2   0 23293.6 1100.68   1
   8  -2   0 20487.5 1093.24   1
  -8   2  -1 36489.5 1477.72   1
   8  -2   1 35366.9 1515.91   1
  -8   2  -2 9829.70 734.897   1
   8  -2   2 9166.27 737.793   1
   8  -2   3 2816.58 402.262   1
  -8   2  -3 2834.00 395.381   1
   8  -2   4 17338.5 1128.28   1
  -8   2  -4 18733.1 1129.37   1
   8   2   5 422.367 194.426   1
   8  -2   5 969.736 268.247   1
  -8   2  -5 985.941 248.253   1
   8  -2   6 3917.30 539.481   1
  -8  -2  -6 4266.54 527.708   1
   8   2   6 4039.28 536.046   1
  -8   2  -6 3264.71 499.132   1
  -8  -2  -7 34555.0 1618.59   1
   8   2   7 34209.6 1688.13   1
   8  -3  -6 49001.3 1459.91   1
   8  -3  -5 567.931 130.467   1
  -8   3   4 4979.16 421.402   1
   8  -3  -4 5223.25 436.375   1
   8  -3  -3 2361.17 301.342   1
  -8   3   3 2111.88 287.264   1
  -8   3   2 21523.2 1008.45   1
   8  -3  -2 20419.5 988.579   1
  -8   3   1 6475.29 547.403   1
   8  -3  -1 6544.75 564.487   1
   8  -3   0 133.058 79.5335   1
  -8   3   0 543.682 136.665   1
   8  -3   1 5880.68 570.186   1
  -8   3  -1 6437.57 569.099   1
   8  -3   2 5748.34 594.642   1
  -8   3  -2 6232.27 616.755   1
   8  -3   3 186.143 108.799   1
  -8   3  -3 199.330 99.0595   1
   8  -3   4 10919.0 845.574   1
  -8   3  -4 10425.8 862.304   1
  -8   3  -5 6214.20 658.714   1
   8  -3   5 5799.89 620.258   1
  -8   4   5 16116.7 759.929   1
   8  -4  -5 16748.5 785.861   1
  -8   4   4 5896.42 459.052   1
   8  -4  -4 5617.56 453.010   1
   8  -4  -3 1181.90 219.232   1
  -8   4   3 1105.60 201.706   1
   8  -4  -2 4247.75 434.054   1
  -8   4   2 3647.20 421.908   1
   8  -4  -1 28324.2 1235.21   1
  -8   4   1 29008.7 1278.36   1
   8  -4   0 7609.50 635.119   1
  -8   4   0 7606.71 648.155   1
   8  -4   1 46352.0 1757.27   1
  -8   4  -1 46017.1 1782.71   1
  -8   4  -2 3390.63 429.708   1
   8  -4   2 2376.95 358.356   1
  -8   4  -3 23.8123 14.9113   1
  -8   5   5 8751.71 538.404   1
  -8   5   4 805.302 153.676   1
  -8   5   3 11379.5 723.816   1
  -8   5   2 32.5792 39.4963   1
  -8   5   1 698.073 190.466   1
  -8   5   0 34.2760 33.1192   1
  -8   6   5 38.4140 50.0906   1
  -8   6   4 47374.4 1568.89   1
  -8   6   3 597.450 163.606   1
   9   0   0 21.4000 26.7943   1
  -9   0  -2 6916.24 636.918   1
   9   0   2 5618.34 640.087   1
   9   0   3 130.617 135.854   1
  -9   0  -4 7378.63 698.185   1
   9   0   4 6086.25 705.651   1
   9   0   5 3.97723 38.9694   1
   9  -1  -3 8237.49 664.742   1
   9  -1  -2 3395.53 433.160   1
  -9   1   1 19833.9 1083.62   1
   9  -1  -1 20255.8 1126.41   1
  -9   1   0 6450.53 629.064   1
   9  -1   0 7435.96 684.208   1
  -9   1  -1 14756.1 963.901   1
   9  -1   1 14517.9 993.385   1
  -9   1  -2 113.588 90.2589   1
  -9  -1  -3 8498.04 774.729   1
  -9   1  -3 8973.33 752.051   1
   9   1   3 8883.12 785.845   1
   9  -1   3 8526.88 783.044   1
  -9  -1  -4 10059.1 819.385   1
  -9   1  -4 9285.62 784.006   1
   9   1   4 8680.44 828.247   1
   9  -1   4 9494.38 867.338   1
   9  -2  -5 12553.8 767.894   1
   9  -2  -4 4612.17 475.710   1
   9  -2  -3 6615.62 587.128   1
  -9   2   2 5012.70 516.246   1
   9  -2  -2 4727.67 499.133   1
  -9   2   1 8539.48 680.655   1
   9  -2  -1 7544.16 675.212   1
  -9   2   0 32.5956 61.8476   1
   9  -2   0 6.09658 13.3607   1
  -9   2  -1 16905.6 1021.40   1
   9  -2   1 15681.3 1039.89   1
  -9   2  -2 7524.36 675.187   1
   9  -2   2 7293.67 700.694   1
  -9   2  -3 6287.38 631.688   1
   9  -2   3 5754.53 648.922   1
  -9   2  -4 7023.79 728.525   1
   9  -2   4 6762.11 705.250   1
   9  -3  -6 38.8086 29.2041   1
   9  -3  -5 1485.31 238.389   1
   9  -3  -4 37996.8 1445.21   1
   9  -3  -3 3182.40 382.728   1
  -9   3   3 3020.15 368.490   1
   9  -3  -2 254.546 112.266   1
  -9   3   2 470.286 152.625   1
   9  -3  -1 469.310 161.119   1
  -9   3   1 764.228 210.236   1
  -9   3   0 14306.9 915.020   1
   9  -3   0 13669.2 930.205   1
  -9   3  -1 108.560 82.5365   1
   9  -3   1 87.2845 64.0905   1
   9  -3   2 2181.64 394.556   1
  -9   3  -2 2048.47 343.698   1
   9  -3   3 3100.49 475.506   1
  -9   3  -3 3742.40 486.098   1
   9  -3   4 23119.7 1405.72   1
  -9   3  -4 24196.4 1394.60   1
   9  -4  -5 6060.19 506.176   1
  -9   4   4 690.436 155.063   1
   9  -4  -4 329.773 129.580   1
  -9   4   3 976.953 199.875   1
   9  -4  -3 972.299 222.803   1
   9  -4  -2 5660.53 546.339   1
  -9   4   2 5583.74 541.682   1
   9  -4  -1 10130.2 776.340   1
  -9   4   1 9887.99 755.831   1
   9  -4   0 917.863 225.768   1
  -9   4   0 604.263 183.524   1
   9  -4   1 11679.9 878.763   1
  -9   4  -1 11601.0 890.676   1
   9  -4   2 7309.14 715.974   1
  -9   4  -2 7790.84 723.339   1
  -9   4  -3 6868.51 718.003   1
   9  -4   3 6226.99 687.009   1
  -9   5   5 1837.89 256.376   1
  -9   5   4 3972.63 405.461   1
  -9   5   3 2089.86 307.950   1
  -9   5   2 1932.23 322.768   1
  -9   5   1 11757.4 858.217   1
  -9   5   0 1955.70 362.211   1
  -9   6   5 32.1350 27.4767   1
  -9   6   4 5821.57 506.621   1
  -9   6   3 851.664 210.454   1
 -10   0  -2 268.366 142.191   1
  10   0   2 208.165 102.361   1
  10  -1  -2 4991.79 585.486   1
  10  -1  -1 9658.55 834.575   1
 -10   1   0 1751.22 332.492   1
  10  -1   0 1388.25 196.000   1
 -10   1  -1 5537.83 613.260   1
  10  -1   1 5871.69 680.511   1
 -10   1  -2 218.901 143.306   1
  10  -1   2 232.570 138.232   1
  10  -2  -4 1281.24 274.381   1
  10  -2  -3 14083.2 943.874   1
 -10   2   2 2689.50 375.750   1
  10  -2  -2 2701.37 417.878   1
 -10   2   1 280.628 130.959   1
  10  -2  -1 209.204 116.480   1
 -10   2   0 448.004 167.845   1
  10  -2   1 188.758 100.037   1
 -10   2  -1 230.754 159.223   1
  10  -2   2 1068.14 303.714   1
 -10   2  -2 1351.00 340.674   1
  10  -3  -5 733.579 185.983   1
  10  -3  -4 1397.44 274.790   1
 -10   3   3 1623.75 300.347   1
  10  -3  -3 1983.18 337.100   1
 -10   3   2 15497.9 963.623   1
  10  -3  -2 14494.0 951.386   1
 -10   3   1 1350.21 305.875   1
  10  -3  -1 1944.09 354.030   1
 -10   3   0 102.384 102.079   1
  10  -3   0 103.399 80.0702   1
 -10   3  -1 439.241 194.141   1
  10  -3   1 477.540 176.840   1
  10  -3   2 22950.5 1375.32   1
  10  -4  -5 8508.02 626.189   1
 -10   4   4 4956.92 481.326   1
  10  -4  -4 4782.15 502.382   1
  10  -4  -3 16645.7 989.502   1
 -10   4   3 18453.0 1004.44   1
 -10   4   2 2.76868 32.0982   1
 -10   4   1 758.014 216.319   1
  10  -4  -1 939.810 251.418   1
  10  -4   0 10052.1 840.701   1
 -10   4   0 10081.9 841.263   1
  10  -4   1 1037.60 268.802   1
 -10   4  -1 1525.56 321.617   1
 -10   5   5 12136.5 750.139   1
 -10   5   4 11.8900 42.9634   1
 -10   5   3 3525.99 428.578   1
 -10   5   2 1092.63 240.656   1
 -10   5   1 29039.3 1439.68   1
 -10   6   4 5389.99 515.097   1
 -10   6   3 1025.36 233.110   1
 -10   6   2 23.9038 0.39810   1
  11  -2  -3 675.051 249.341   1
  11  -2  -2 364.974 172.111   1
 -11   2   1 18176.6 1158.61   1
  11  -2  -1 16683.3 1163.86   1
  11  -3  -4 206.915 109.992   1
  11  -3  -3 154.145 48.8131   1
 -11   3   2 19.1938 34.3370   1
 -11   3   1 249.288 134.810   1
  11  -3  -1 496.115 179.022   1
  11  -4  -5 12001.4 847.505   1
  11  -4  -4 52.5919 77.8811   1
 -11   4   3 16561.5 1034.28   1
  11  -4  -3 17977.4 1097.72   1
 -11   4   2 4474.06 545.062   1
  11  -4  -2 4274.17 539.621   1
 -11   4   1 2396.63 392.523   1
  11  -4  -1 2769.30 448.447   1
 -11   5   3 32085.0 1484.41   1
 -11   5   2 396.212 169.508   1
 -11   6   3 1314.61 269.250   1
  12  -4  -4 1807.71 344.373   1
 -12   5   4 165.571 127.488   1
   0   0   0    0.00    0.00   0

TITL slav_p01_s in P2(1)/c
REM P2(1)/c (#14 in standard setting)
CELL 0.41106   8.318918   9.343760   8.842834  90.0000  90.3221  90.0000
ZERR    3.00   0.000190   0.001499   0.000281   0.0000   0.0025   0.0000
LATT  1
SYMM -x, y+1/2,-z+1/2
SFAC C H N O
UNIT 33.00 30.00 3.00 3.00
TREF
HKLF 4
END
;
_shelx_hkl_checksum              89269
loop_
_space_group_symop_operation_xyz
'x, y, z'
'-x, y+1/2, -z+1/2'
'-x, -y, -z'
'x, -y-1/2, z-1/2'
loop_
_atom_site_label
_atom_site_type_symbol
_atom_site_fract_x
_atom_site_fract_y
_atom_site_fract_z
_atom_site_U_iso_or_equiv
_atom_site_adp_type
_atom_site_occupancy
_atom_site_site_symmetry_order
_atom_site_calc_flag
_atom_site_refinement_flags_posn
_atom_site_refinement_flags_adp
_atom_site_refinement_flags_occupancy
_atom_site_disorder_assembly
_atom_site_disorder_group
Sr1 Sr 0.74938(5) 0.41135(10) 0.61062(6) 0.0098(4) Uani 1 1 d . . . . .
Si1 Si 0.56066(15) 0.4214(3) 0.24123(18) 0.0103(12) Uani 1 1 d . . . . .
Si2 Si 1.05623(15) 0.2996(4) 0.94099(17) 0.0081(11) Uani 1 1 d . . . . .
Al1 Al 1.06910(17) 0.5738(4) 0.76703(19) 0.0092(14) Uani 1 1 d . . . . .
Al2 Al 0.42895(17) 0.1947(4) 0.44556(19) 0.0102(15) Uani 1 1 d . . . . .
O1 O 0.7398(4) 0.4255(9) 0.3156(4) 0.014(3) Uani 1 1 d . . . . .
O2 O 0.9908(5) 0.4061(9) 0.8076(5) 0.010(3) Uani 1 1 d . . . . .
O3 O 1.0545(4) 0.1341(9) 0.8810(5) 0.0135(9) Uiso 1 1 d . . . . .
O4 O 0.4432(4) 0.3710(9) 0.3764(5) 0.013(3) Uani 1 1 d . . . . .
O5 O 0.5604(4) 0.3088(9) 0.1010(4) 0.009(3) Uani 1 1 d . . . . .
O6 O 1.2326(4) 0.3468(9) 0.9923(5) 0.011(3) Uani 1 1 d . . . . .
O7 O 0.9296(4) 0.3104(9) 1.0796(5) 0.0126(8) Uiso 1 1 d . . . . .
O8 O 0.4940(4) 0.5759(10) 0.1909(5) 0.0121(9) Uiso 1 1 d . . . . .
loop_
_atom_site_aniso_label
_atom_site_aniso_U_11
_atom_site_aniso_U_22
_atom_site_aniso_U_33
_atom_site_aniso_U_23
_atom_site_aniso_U_13
_atom_site_aniso_U_12
Sr1 0.0087(2) 0.0087(13) 0.0121(3) -0.0010(3) -0.0004(2) -0.0003(2)
Si1 0.0052(6) 0.019(4) 0.0071(9) 0.0014(10) 0.0001(6) 0.0001(7)
Si2 0.0075(6) 0.008(4) 0.0086(9) 0.0004(9) 0.0000(6) 0.0005(8)
Al1 0.0073(7) 0.014(5) 0.0066(10) 0.0004(11) 0.0005(8) 0.0008(8)
Al2 0.0068(7) 0.016(5) 0.0074(10) -0.0004(11) -0.0008(7) 0.0010(9)
O1 0.0075(16) 0.027(11) 0.007(2) -0.001(3) 0.0011(15) -0.002(2)
O2 0.0153(18) 0.005(12) 0.011(2) 0.003(3) -0.0024(17) 0.000(2)
O4 0.0115(18) 0.018(13) 0.009(2) 0.002(3) 0.0055(17) 0.001(2)
O5 0.0083(16) 0.010(11) 0.010(2) -0.003(3) -0.0026(16) -0.001(2)
O6 0.0084(16) 0.009(11) 0.016(2) -0.008(3) -0.0019(16) 0.000(2)
loop_
_atom_type_symbol
_atom_type_description
_atom_type_scat_dispersion_real
_atom_type_scat_dispersion_imag
_atom_type_scat_source
O O 0.0017 0.0018 'International Tables Vol C Tables 4.2.6.8 and 6.1.1.4'
Al Al 0.0192 0.0163 'International Tables Vol C Tables 4.2.6.8 and 6.1.1.4'
Si Si 0.0265 0.0226 'International Tables Vol C Tables 4.2.6.8 and 6.1.1.4'
Sr Sr 0.2429 1.2951 'International Tables Vol C Tables 4.2.6.8 and 6.1.1.4'
loop_
_geom_angle_atom_site_label_1
_geom_angle_atom_site_label_2
_geom_angle_atom_site_label_3
_geom_angle
_geom_angle_site_symmetry_1
_geom_angle_site_symmetry_3
_geom_angle_publ_flag
O7 Sr1 O4 175.74(14) 4_565 3_666 ?
O7 Sr1 O5 73.21(18) 4_565 4_566 ?
O4 Sr1 O5 104.43(18) 3_666 4_566 ?
O7 Sr1 O1 87.09(17) 4_565 . ?
O4 Sr1 O1 89.36(17) 3_666 . ?
O5 Sr1 O1 89.56(17) 4_566 . ?
O7 Sr1 O3 106.07(18) 4_565 2_756 ?
O4 Sr1 O3 76.27(19) 3_666 2_756 ?
O5 Sr1 O3 179.25(18) 4_566 2_756 ?
O1 Sr1 O3 90.19(17) . 2_756 ?
O7 Sr1 O2 67.4(2) 4_565 . ?
O4 Sr1 O2 116.8(2) 3_666 . ?
O5 Sr1 O2 117.7(2) 4_566 . ?
O1 Sr1 O2 132.52(13) . . ?
O3 Sr1 O2 62.1(2) 2_756 . ?
O7 Sr1 O8 123.1(2) 4_565 3_666 ?
O4 Sr1 O8 57.9(2) 3_666 3_666 ?
O5 Sr1 O8 66.3(2) 4_566 3_666 ?
O1 Sr1 O8 129.07(11) . 3_666 ?
O3 Sr1 O8 114.4(2) 2_756 3_666 ?
O2 Sr1 O8 98.18(13) . 3_666 ?
O7 Sr1 O3 51.52(19) 4_565 4_565 ?
O4 Sr1 O3 127.47(17) 3_666 4_565 ?
O5 Sr1 O3 110.36(18) 4_566 4_565 ?
O1 Sr1 O3 53.79(10) . 4_565 ?
O3 Sr1 O3 68.9(2) 2_756 4_565 ?
O2 Sr1 O3 79.56(12) . 4_565 ?
O8 Sr1 O3 174.6(2) 3_666 4_565 ?
O7 Sr1 Si1 151.93(13) 4_565 3_666 ?
O4 Sr1 Si1 28.91(12) 3_666 3_666 ?
O5 Sr1 Si1 85.01(13) 4_566 3_666 ?
O1 Sr1 Si1 110.69(12) . 3_666 ?
O3 Sr1 Si1 95.74(14) 2_756 3_666 ?
O2 Sr1 Si1 109.84(14) . 3_666 ?
O8 Sr1 Si1 29.00(18) 3_666 3_666 ?
O3 Sr1 Si1 156.38(14) 4_565 3_666 ?
O7 Sr1 O4 106.84(17) 4_565 . ?
O4 Sr1 O4 69.0(2) 3_666 . ?
O5 Sr1 O4 54.65(17) 4_566 . ?
O1 Sr1 O4 50.14(11) . . ?
O3 Sr1 O4 125.60(16) 2_756 . ?
O2 Sr1 O4 172.1(2) . . ?
O8 Sr1 O4 80.39(11) 3_666 . ?
O3 Sr1 O4 101.18(10) 4_565 . ?
Si1 Sr1 O4 72.54(11) 3_666 . ?
O7 Sr1 Al1 86.97(12) 4_565 . ?
O4 Sr1 Al1 96.63(14) 3_666 . ?
O5 Sr1 Al1 148.52(11) 4_566 . ?
O1 Sr1 Al1 114.11(11) . . ?
O3 Sr1 Al1 31.23(11) 2_756 . ?
O2 Sr1 Al1 30.86(18) . . ?
O8 Sr1 Al1 108.00(12) 3_666 . ?
O3 Sr1 Al1 72.53(10) 4_565 . ?
Si1 Sr1 Al1 104.02(6) 3_666 . ?
O4 Sr1 Al1 156.82(15) . . ?
O7 Sr1 Si2 24.56(12) 4_565 4_565 ?
O4 Sr1 Si2 153.79(11) 3_666 4_565 ?
O5 Sr1 Si2 89.04(13) 4_566 4_565 ?
O1 Sr1 Si2 68.02(13) . 4_565 ?
O3 Sr1 Si2 90.21(14) 2_756 4_565 ?
O2 Sr1 Si2 74.02(14) . 4_565 ?
O8 Sr1 Si2 147.46(19) 3_666 4_565 ?
O3 Sr1 Si2 27.23(15) 4_565 4_565 ?
Si1 Sr1 Si2 173.94(7) 3_666 4_565 ?
O4 Sr1 Si2 103.01(11) . 4_565 ?
Al1 Sr1 Si2 81.70(6) . 4_565 ?
O8 Si1 O4 104.9(3) . . ?
O8 Si1 O1 113.9(4) . . ?
O4 Si1 O1 105.3(2) . . ?
O8 Si1 O5 111.8(3) . . ?
O4 Si1 O5 112.1(4) . . ?
O1 Si1 O5 108.7(3) . . ?
O8 Si1 Sr1 54.19(15) . 3_666 ?
O4 Si1 Sr1 50.7(3) . 3_666 ?
O1 Si1 Sr1 123.1(2) . 3_666 ?
O5 Si1 Sr1 127.76(13) . 3_666 ?
O8 Si1 Sr1 114.9(2) . . ?
O4 Si1 Sr1 65.56(14) . . ?
O1 Si1 Sr1 40.83(15) . . ?
O5 Si1 Sr1 132.1(2) . . ?
Sr1 Si1 Sr1 89.43(4) 3_666 . ?
O8 Si1 Sr1 145.11(18) . 4_565 ?
O4 Si1 Sr1 104.3(3) . 4_565 ?
O1 Si1 Sr1 75.8(3) . 4_565 ?
O5 Si1 Sr1 37.92(19) . 4_565 ?
Sr1 Si1 Sr1 149.75(8) 3_666 4_565 ?
Sr1 Si1 Sr1 94.46(5) . 4_565 ?
O6 Si2 O7 111.6(2) . . ?
O6 Si2 O3 111.1(3) . . ?
O7 Si2 O3 107.4(4) . . ?
O6 Si2 O2 109.8(3) . . ?
O7 Si2 O2 107.0(3) . . ?
O3 Si2 O2 109.9(3) . . ?
O6 Si2 Sr1 133.9(2) . 4_566 ?
O7 Si2 Sr1 41.2(3) . 4_566 ?
O3 Si2 Sr1 66.93(17) . 4_566 ?
O2 Si2 Sr1 113.83(17) . 4_566 ?
O7 Al1 O2 113.7(3) 3_767 . ?
O7 Al1 O3 112.6(3) 3_767 2_756 ?
O2 Al1 O3 103.0(3) . 2_756 ?
O7 Al1 O1 108.8(3) 3_767 3_766 ?
O2 Al1 O1 115.6(4) . 3_766 ?
O3 Al1 O1 102.5(2) 2_756 3_766 ?
O7 Al1 Sr1 127.31(14) 3_767 . ?
O2 Al1 Sr1 51.60(13) . . ?
O3 Al1 Sr1 51.5(2) 2_756 . ?
O1 Al1 Sr1 123.3(2) 3_766 . ?
O7 Al1 Sr1 39.7(2) 3_767 2_756 ?
O2 Al1 Sr1 150.72(17) . 2_756 ?
O3 Al1 Sr1 100.6(3) 2_756 2_756 ?
O1 Al1 Sr1 75.3(3) 3_766 2_756 ?
Sr1 Al1 Sr1 146.85(9) . 2_756 ?
O7 Al1 Sr1 133.3(2) 3_767 3_766 ?
O2 Al1 Sr1 112.3(2) . 3_766 ?
O3 Al1 Sr1 63.35(15) 2_756 3_766 ?
O1 Al1 Sr1 40.83(13) 3_766 3_766 ?
Sr1 Al1 Sr1 88.35(5) . 3_766 ?
Sr1 Al1 Sr1 93.74(6) 2_756 3_766 ?
O6 Al2 O5 113.2(2) 4_465 4_566 ?
O6 Al2 O4 111.0(3) 4_465 . ?
O5 Al2 O4 104.3(3) 4_566 . ?
O6 Al2 O8 111.7(3) 4_465 2_645 ?
O5 Al2 O8 107.3(3) 4_566 2_645 ?
O4 Al2 O8 109.0(3) . 2_645 ?
O6 Al2 Sr1 135.9(2) 4_465 . ?
O5 Al2 Sr1 40.9(3) 4_566 . ?
O4 Al2 Sr1 64.48(15) . . ?
O8 Al2 Sr1 110.86(15) 2_645 . ?
Si1 O1 Al1 131.5(3) . 3_766 ?
Si1 O1 Sr1 115.17(19) . . ?
Al1 O1 Sr1 113.15(16) 3_766 . ?
Si2 O2 Al1 125.1(3) . . ?
Si2 O2 Sr1 137.2(4) . . ?
Al1 O2 Sr1 97.5(2) . . ?
Si2 O3 Al1 123.4(4) . 2_746 ?
Si2 O3 Sr1 137.0(2) . 2_746 ?
Al1 O3 Sr1 97.3(3) 2_746 2_746 ?
Si2 O3 Sr1 85.84(18) . 4_566 ?
Al1 O3 Sr1 88.18(17) 2_746 4_566 ?
Sr1 O3 Sr1 111.1(2) 2_746 4_566 ?
Si1 O4 Al2 124.8(4) . . ?
Si1 O4 Sr1 100.4(4) . 3_666 ?
Al2 O4 Sr1 132.5(2) . 3_666 ?
Si1 O4 Sr1 87.88(15) . . ?
Al2 O4 Sr1 86.69(16) . . ?
Sr1 O4 Sr1 111.0(2) 3_666 . ?
Si1 O5 Al2 127.5(4) . 4_565 ?
Si1 O5 Sr1 119.4(2) . 4_565 ?
Al2 O5 Sr1 112.8(3) 4_565 4_565 ?
Si2 O6 Al2 137.5(4) . 4_666 ?
Si2 O7 Al1 128.9(4) . 3_767 ?
Si2 O7 Sr1 114.3(4) . 4_566 ?
Al1 O7 Sr1 114.8(2) 3_767 4_566 ?
Si1 O8 Al2 128.9(3) . 2_655 ?
Si1 O8 Sr1 96.8(2) . 3_666 ?
Al2 O8 Sr1 134.2(4) 2_655 3_666 ?
loop_
_geom_bond_atom_site_label_1
_geom_bond_atom_site_label_2
_geom_bond_distance
_geom_bond_site_symmetry_2
_geom_bond_publ_flag
Sr1 O7 2.573(7) 4_565 ?
Sr1 O4 2.592(7) 3_666 ?
Sr1 O5 2.590(7) 4_566 ?
Sr1 O1 2.613(4) . ?
Sr1 O3 2.645(7) 2_756 ?
Sr1 O2 2.651(3) . ?
Sr1 O8 2.690(4) 3_666 ?
Sr1 O3 3.286(4) 4_565 ?
Sr1 Si1 3.294(2) 3_666 ?
Sr1 O4 3.295(4) . ?
Sr1 Al1 3.354(2) . ?
Sr1 Si2 3.563(2) 4_565 ?
Si1 O8 1.608(9) . ?
Si1 O4 1.619(5) . ?
Si1 O1 1.625(3) . ?
Si1 O5 1.627(6) . ?
Si2 O6 1.596(4) . ?
Si2 O7 1.624(4) . ?
Si2 O3 1.635(8) . ?
Si2 O2 1.634(6) . ?
Al1 O7 1.735(7) 3_767 ?
Al1 O2 1.735(9) . ?
Al1 O3 1.753(5) 2_756 ?
Al1 O1 1.754(4) 3_766 ?
Al2 O6 1.731(4) 4_465 ?
Al2 O5 1.752(4) 4_566 ?
Al2 O4 1.761(9) . ?
Al2 O8 1.763(7) 2_645 ?
