#------------------------------------------------------------------------------
#$Date: 2021-07-04 04:49:46 +0300 (Sun, 04 Jul 2021) $
#$Revision: 266973 $
#$URL: file:///home/coder/svn-repositories/cod/cif/1/56/31/1563145.cif $
#------------------------------------------------------------------------------
#
# This file is available in the Crystallography Open Database (COD),
# http://www.crystallography.net/
#
# All data on this site have been placed in the public domain by the
# contributors.
#
data_1563145
loop_
_publ_author_name
'Gorelova, Liudmila A.'
'Pakhomova, Anna S.'
'Krzhizhanovskaya, Maria G.'
'Pankin, Dmitrii V.'
'Krivovichev, Sergey V.'
'Dubrovinsky, Leonid S.'
'Kasatkin, Anatoly V.'
_publ_section_title
;
 Crystal Structure Evolution of Slawsonite SrAl2Si2O8 and Paracelsian
 BaAl2Si2O8 upon Compression and Decompression
;
_journal_issue                   23
_journal_name_full               'The Journal of Physical Chemistry C'
_journal_page_first              13014
_journal_page_last               13023
_journal_paper_doi               10.1021/acs.jpcc.1c02949
_journal_volume                  125
_journal_year                    2021
_chemical_formula_sum            'Al2 O8 Si2 Sr'
_chemical_formula_weight         325.76
_space_group_crystal_system      monoclinic
_space_group_IT_number           14
_space_group_name_Hall           '-P 2ybc'
_space_group_name_H-M_alt        'P 1 21/c 1'
_audit_creation_method           SHELXL-2018/3
_cell_angle_alpha                90
_cell_angle_beta                 90.697(16)
_cell_angle_gamma                90
_cell_formula_units_Z            4
_cell_length_a                   8.7239(11)
_cell_length_b                   8.507(7)
_cell_length_c                   6.5045(13)
_cell_measurement_reflns_used    746
_cell_measurement_temperature    293(2)
_cell_measurement_theta_max      19.501
_cell_measurement_theta_min      2.661
_cell_volume                     482.7(4)
_computing_structure_refinement  'SHELXL-2018/3 (Sheldrick, 2018)'
_diffrn_ambient_temperature      293(2)
_diffrn_measured_fraction_theta_full 0.378
_diffrn_measured_fraction_theta_max 0.207
_diffrn_measurement_device_type
'esperanto-CrysAlisPro-abstract goniometer imported esperanto images'
_diffrn_radiation_type           synchrotron
_diffrn_radiation_wavelength     0.41106
_diffrn_reflns_av_R_equivalents  0.0568
_diffrn_reflns_av_unetI/netI     0.0896
_diffrn_reflns_Laue_measured_fraction_full 0.378
_diffrn_reflns_Laue_measured_fraction_max 0.207
_diffrn_reflns_limit_h_max       12
_diffrn_reflns_limit_h_min       -13
_diffrn_reflns_limit_k_max       6
_diffrn_reflns_limit_k_min       -4
_diffrn_reflns_limit_l_max       9
_diffrn_reflns_limit_l_min       -9
_diffrn_reflns_number            746
_diffrn_reflns_point_group_measured_fraction_full 0.378
_diffrn_reflns_point_group_measured_fraction_max 0.207
_diffrn_reflns_theta_full        14.279
_diffrn_reflns_theta_max         19.501
_diffrn_reflns_theta_min         2.661
_exptl_absorpt_coefficient_mu    2.817
_exptl_crystal_colour            colorless
_exptl_crystal_density_diffrn    4.483
_exptl_crystal_density_meas      ?
_exptl_crystal_density_method    none
_exptl_crystal_description       isosymmetric
_exptl_crystal_F_000             624
_exptl_crystal_size_max          0.010
_exptl_crystal_size_mid          0.010
_exptl_crystal_size_min          0.005
_refine_diff_density_max         1.494
_refine_diff_density_min         -1.339
_refine_diff_density_rms         0.264
_refine_ls_extinction_method     none
_refine_ls_goodness_of_fit_ref   1.105
_refine_ls_hydrogen_treatment    undef
_refine_ls_matrix_type           full
_refine_ls_number_parameters     78
_refine_ls_number_reflns         450
_refine_ls_number_restraints     0
_refine_ls_restrained_S_all      1.105
_refine_ls_R_factor_all          0.1226
_refine_ls_R_factor_gt           0.0865
_refine_ls_shift/su_max          0.000
_refine_ls_shift/su_mean         0.000
_refine_ls_structure_factor_coef Fsqd
_refine_ls_weighting_details
'w=1/[\s^2^(Fo^2^)+(0.1353P)^2^+5.2696P] where P=(Fo^2^+2Fc^2^)/3'
_refine_ls_weighting_scheme      calc
_refine_ls_wR_factor_gt          0.2169
_refine_ls_wR_factor_ref         0.2619
_reflns_Friedel_coverage         0.000
_reflns_number_gt                299
_reflns_number_total             450
_reflns_threshold_expression     'I > 2\s(I)'
_cod_data_source_file            slav_p10.cif
_cod_data_source_block           shelx
_cod_depositor_comments
;
The following automatic conversions were performed:

data item '_exptl_crystal_density_meas' value 'none' was changed to
'?' -- the value is perceived as not measured.

Automatic conversion script
Id: cif_fix_values 7556 2019-12-06 15:28:31Z antanas 

 Adding full bibliography for 1563145--1563156.cif.
;
_cod_original_sg_symbol_H-M      'P 21/c'
_cod_database_code               1563145
_shelx_shelxl_version_number     2018/3
_shelx_space_group_comment
;
The symmetry employed for this shelxl refinement is uniquely defined
by the following loop, which should always be used as a source of
symmetry information in preference to the above space-group names.
They are only intended as comments.
;
_shelx_res_file
;
TITL slav_p10_s1 in P2(1)/c
    shelx.res
    created by SHELXL-2018/3 at 14:48:06 on 19-Jan-2021
REM P2(1)/c (#14 in standard setting)
CELL 0.41106   8.723897   8.506646   6.504476  90.0000  90.6974  90.0000
ZERR    4.00   0.001086   0.006686   0.001284   0.0000   0.0159   0.0000
LATT  1
SYMM -x, y+1/2,-z+1/2
SFAC O AL SI SR
DISP O 0.00165 0.00179 4.1539
DISP Si 0.026465 0.022605 52.36784
DISP Al 0.019188 0.016298 37.75624
DISP Sr 0.242892 1.295112 3000.317
UNIT 32.00 8.00 8.00 4.00

OMIT     6   3   1
OMIT     3   2   0
OMIT    -9   5   1
OMIT    -5   5   3
OMIT    -9   5   2
OMIT    -7   2   1

L.S. 20
BOND
ACTA
LIST 10
FMAP 2
PLAN 20
REM DAMP 10000
REM EXTI    0.000000
WGHT    0.135300    5.269599
FVAR       3.50403
SR1   4    0.751027    0.615475    0.268536    11.00000    0.02083    0.05282 =
         0.03250   -0.00247   -0.00494   -0.00064
SI1   3    0.584876    0.542041    0.781757    11.00000    0.01766    0.08066 =
         0.02839    0.00128   -0.00519   -0.00067
SI2   3    1.074732    0.725281    0.518474    11.00000    0.02039    0.03400 =
         0.02851    0.00288   -0.00909   -0.00081
AL1   2    0.910417    0.524012    0.812589    11.00000    0.02136    0.04833 =
         0.02281    0.00613   -0.00420    0.00171
AL2   2    0.405110    0.770363    1.013156    11.00000    0.02263    0.06651 =
         0.03237    0.00085   -0.00704   -0.00011
O3    1    1.084806    0.909206    0.433671    11.00000    0.02179
O5    1    0.581116    0.639692    0.569718    11.00000    0.02680
O8    1    0.590052    0.354407    0.748380    11.00000    0.02876
O2    1    0.941831    0.345196    0.734460    11.00000    0.02374
O4    1    0.421798    0.591438    0.884918    11.00000    0.02441
O1    1    0.737154    0.608406    0.896623    11.00000    0.01724
O7    1    0.916359    0.632763    0.584525    11.00000    0.01814
O6    1    1.234723    0.644510    0.564406    11.00000    0.02178

HKLF 4




REM  slav_p10_s1 in P2(1)/c
REM wR2 = 0.2619, GooF = S = 1.105, Restrained GooF = 1.105 for all data
REM R1 = 0.0865 for 299 Fo > 4sig(Fo) and 0.1226 for all 450 data
REM 78 parameters refined using 0 restraints

END

WGHT      0.1344      5.3183

REM Highest difference peak  1.494,  deepest hole -1.339,  1-sigma level  0.264
Q1    1   0.7241  0.6065  0.1543  11.00000  0.05    1.49
Q2    1   0.7742  0.6007  0.4058  11.00000  0.05    1.40
Q3    1   0.6162  0.3987  0.8973  11.00000  0.05    0.97
Q4    1   1.2462  0.5967  0.6681  11.00000  0.05    0.89
Q5    1   0.7007  0.7762  0.2211  11.00000  0.05    0.87
Q6    1   1.2218  0.9457  0.3308  11.00000  0.05    0.87
Q7    1   0.8616  0.6157  0.1936  11.00000  0.05    0.84
Q8    1   0.9083  0.4006  0.6197  11.00000  0.05    0.83
Q9    1   0.8033  0.7483  0.3053  11.00000  0.05    0.82
Q10   1   0.9241  0.5386  0.9714  11.00000  0.05    0.82
Q11   1   0.4357  0.7514  1.1470  11.00000  0.05    0.79
Q12   1   0.7232  0.7310  0.8711  11.00000  0.05    0.78
Q13   1   0.5865  0.4439  0.6314  11.00000  0.05    0.76
Q14   1   0.8478  0.3882  0.7700  11.00000  0.05    0.75
Q15   1   1.0968  0.7207  0.6657  11.00000  0.05    0.71
Q16   1   0.6421  0.3418  0.7652  11.00000  0.05    0.69
Q17   1   1.0835  0.6737  0.6954  11.00000  0.05    0.69
Q18   1   1.1137  0.8556  0.5711  11.00000  0.05    0.66
Q19   1   0.4260  0.6802  1.0805  11.00000  0.05    0.64
Q20   1   1.2287  0.7018  0.4719  11.00000  0.05    0.63
;
_shelx_res_checksum              81939
_shelx_hkl_file
;
   0   1  -2 1106.61 288.755   1
   0  -1   2 927.275 255.783   1
   0  -1   3 18046.1 1490.32   1
   0  -1   4 54152.7 3074.85   1
   0  -1   5 192.759 117.421   1
   0  -1   6 348.307 621.001   1
   0   2  -3 483136. 7285.11   1
   0   2  -4 13455.9 1729.60   1
   0  -2   4 15021.8 1303.85   1
   0  -2   5 21481.7 1785.89   1
   0  -2   6 4661.92 867.790   1
   0  -2   7 12569.3 1602.42   1
   0  -2   8 2565.63 795.663   1
   0   3  -4 10504.7 1213.35   1
   0   3  -5 36178.1 3013.31   1
   0   4  -4 752.172 288.583   1
   0   4  -5 1406.65 503.771   1
   0   5  -5 6400.64 961.831   1
   0   5  -6 24.7207 209.836   1
  -1   0  -1-37.5015 76.8617   1
   1   0   1 34.2616 97.5504   1
   1   0   2 20194.7 1919.80   1
   1   0   3 34.8638 195.811   1
   1  -1   1 24407.7 1358.06   1
  -1   1  -1 24636.3 1337.23   1
  -1   1  -2 161766. 4709.73   1
   1  -1   2 158573. 4330.68   1
   1  -1   3 12487.7 1438.68   1
  -1   1  -3 13755.7 1662.50   1
   1  -1   4 981.643 477.003   1
   1  -1   5 18488.6 2360.91   1
   1  -1   6 15505.4 2544.66   1
   1  -1   7 363.274 722.889   1
  -1  -2   7 4354.54 801.342   1
  -1  -2   6 3891.32 689.470   1
  -1  -2   5 6689.73 804.138   1
  -1  -2   4 18961.2 1050.52   1
  -1   2  -2 129.161 183.614   1
  -1   2  -3 19412.8 1824.48   1
   1  -2   3 18940.2 1656.29   1
   1  -2   4 6648.35 1012.22   1
  -1   2  -4 6124.04 1119.35   1
   1  -2   5 5842.71 1062.34   1
  -1   2  -5 4400.91 1338.64   1
   1  -2   6 63.2557 156.883   1
   1  -2   7 14463.3 1906.83   1
   1  -2   8-190.085 316.030   1
   1   3  -4 23943.2 1464.82   1
  -1   3  -3 9539.18 1106.10   1
  -1   3  -4 76944.0 4052.97   1
  -1   3  -5 4895.38 1034.76   1
  -1   3  -6 1941.82 1037.96   1
   1  -3   6 1083.21 457.344   1
   1  -3   7 462.927 311.177   1
   1   4  -5-429.094 242.635   1
   1   4  -4 1087.75 299.193   1
  -1   4  -4 4001.42 813.795   1
  -1   4  -5 779.201 403.715   1
  -1   4  -6 6177.90 1311.92   1
   1   5  -5 5519.00 752.093   1
  -1   5  -6-282.748 432.510   1
  -1   5  -7 473.193 394.802   1
   1   6  -6 61.0250 21.2422   1
   2   0   0 4906.84 662.214   1
  -2   0   0 5346.92 736.589   1
  -2   0  -1 37.2903 19.3352   1
   2   0   1-51.6534 121.449   1
   2   0   2 87008.9 4438.13   1
  -2   0  -2 88167.3 4570.89   1
  -2   0  -3 722.815 750.004   1
   2   0   3 510.667 549.702   1
   2   0   4 4821.97 1526.61   1
   2   1  -1 1442.34 315.062   1
  -2  -1   1 1275.86 344.488   1
   2   1   0 272.431 190.626   1
  -2  -1   0 222.494 169.504   1
   2  -1   1 8118.29 983.515   1
   2   1   1 3806.91 1076.63   1
  -2   1  -1 8397.29 994.558   1
  -2  -1  -1 1394.74 676.865   1
  -2   1  -2 9500.53 1369.06   1
   2  -1   2 9759.92 1240.36   1
  -2   1  -3 31168.3 2735.04   1
   2  -1   3 33030.9 2564.63   1
  -2   1  -4 119.830 219.843   1
   2  -1   4 126.826 239.391   1
   2  -1   5 56560.8 4306.23   1
   2  -1   6 2635.71 1063.84   1
   2  -1   7 23330.1 3785.87   1
  -2  -2   7 3767.46 637.873   1
  -2  -2   6 800.207 250.024   1
  -2   2  -2 14788.9 1496.08   1
   2  -2   3 71662.9 3750.04   1
  -2   2  -3 71611.5 4109.72   1
  -2   2  -4 1565.79 680.362   1
   2  -2   4 1916.96 580.249   1
   2  -2   5 30180.3 2652.12   1
  -2   2  -5 27893.4 3107.33   1
   2  -2   6-15.0769 145.238   1
   2  -2   7 906.069 485.059   1
   2  -2   8 3525.84 1091.33   1
  -2   3  -3 0.75021 170.667   1
  -2   3  -4 706.461 404.057   1
   2  -3   5 323.816 416.375   1
  -2   3  -5 90.8681 77.4657   1
  -2   3  -6-356.965 521.154   1
   2  -3   6 335.263 408.591   1
   2  -3   7-79.5487 187.172   1
   2  -3   8 9384.28 1441.18   1
  -2   4  -5 481.968 386.190   1
  -2   4  -6 4409.70 1161.41   1
  -2   4  -7 452.745 721.021   1
  -2   5  -6 4772.11 1221.93   1
  -2   5  -7 1675.59 818.876   1
  -3   0   0 5022.46 934.573   1
   3   0   0 4872.81 854.006   1
   3   0   1 84.2927 188.333   1
  -3   0  -1 38.0000 36.6638   1
  -3   0  -2 80045.6 4828.80   1
   3   0   2 80258.9 4570.50   1
  -3   0  -3 119.345 296.553   1
   3   0   3 51.1306 85.2836   1
   3   0   4 22469.7 3169.74   1
  -3   0  -4 23740.3 3397.75   1
   3   0   5 105.872 487.366   1
  -3  -1   2 15291.3 1334.74   1
  -3  -1   1 373112. 7378.51   1
   3   1  -1 373770. 6762.42   1
  -3  -1   0 352195. 7991.19   1
   3   1   0 348630. 7902.29   1
  -3  -1  -1 344547. 9355.74   1
   3  -1   1 343849. 7752.50   1
   3   1   1 344959. 9178.81   1
  -3   1  -1 343938. 7799.90   1
   3  -1   2 19546.5 1982.29   1
  -3   1  -2 19913.8 2277.36   1
   3   1   2 20189.7 2757.39   1
  -3  -1  -2 19086.3 2752.15   1
   3  -1   3 169022. 6436.65   1
  -3   1  -3 165830. 7488.03   1
   3  -1   4 98292.4 5281.27   1
  -3   1  -4 99768.2 6066.09   1
   3  -1   5 40197.2 3648.46   1
  -3   1  -5 43156.0 4495.88   1
   3  -1   6 19.1512 73.7070   1
   3  -1   7 1078.73 691.205   1
  -3  -2   7 757.575 203.811   1
   3   2  -2 60.3750 68.0536   1
   3   2  -1 24578.5 1971.36   1
   3   2   0 168.744 231.252   1
  -3   2  -2 1757.91 593.981   1
   3  -2   3 10497.8 1568.07   1
  -3   2  -3 11689.7 1797.34   1
  -3   2  -4 18910.2 2616.27   1
   3  -2   4 17430.4 2076.77   1
  -3   2  -5 87928.1 5922.42   1
   3  -2   5 91347.5 5003.46   1
   3  -2   6 1255.13 635.370   1
  -3   2  -6 1491.38 905.013   1
   3  -2   7 6188.77 1439.10   1
   3  -2   8 981.920 490.445   1
  -3   3  -3 3449.25 917.100   1
  -3   3  -4 760.302 409.191   1
   3  -3   5 28216.9 2915.05   1
  -3   3  -5 23961.7 3134.55   1
   3  -3   6 45398.9 3720.92   1
  -3   3  -6 43863.9 4393.97   1
   3  -3   7 13628.0 1989.96   1
  -3   3  -7 15094.9 3025.33   1
   3  -3   8 2204.97 808.049   1
  -3   4  -5 3062.88 978.757   1
  -3   4  -6 29251.2 3499.79   1
  -3   4  -7 10292.4 2137.35   1
  -3   4  -8 2807.94 1581.58   1
  -3   5  -6 5750.51 1474.20   1
  -3   5  -7 322.571 341.261   1
  -3   5  -8-31.2917 489.198   1
  -4   0   1-45.7480 132.837   1
  -4   0   0 11852.6 1622.88   1
   4   0   0 11742.9 1535.01   1
   4   0   1-41.6177 174.114   1
  -4   0  -1-40.3021 87.0247   1
   4   0   2 106331. 5568.94   1
  -4   0  -2 107013. 6493.55   1
   4   0   3-12.0841 213.295   1
  -4   0  -3 315.484 471.621   1
  -4   0  -4 8277.35 2018.50   1
   4   0   4 7647.47 1809.29   1
   4   0   5-179.952 131.237   1
   4   0   6 17306.0 4380.76   1
  -4  -1   2 5443.31 967.218   1
   4   1  -1 611.969 306.951   1
  -4  -1   1 194.542 226.150   1
  -4  -1   0 592.790 287.410   1
   4   1   0 1093.36 465.695   1
  -4  -1  -1 7711.29 1577.91   1
   4   1   1 7267.19 1492.52   1
  -4   1  -1 7704.89 1430.31   1
   4  -1   1 7946.27 1379.62   1
   4  -1   2 4120.40 1004.81   1
  -4   1  -2 3801.30 1135.85   1
  -4  -1  -2 3616.03 1297.45   1
   4   1   2 3793.63 1216.11   1
   4  -1   3 9700.54 1650.21   1
   4   1   3 9988.29 2315.04   1
  -4  -1  -3 10333.2 2316.63   1
  -4   1  -3 10899.1 2099.21   1
  -4   1  -4 10639.7 2055.43   1
   4  -1   4 10046.9 1731.53   1
  -4   1  -5 6414.31 1763.46   1
   4  -1   5 5710.13 1481.09   1
   4  -1   6 5922.41 1599.68   1
  -4   1  -6 2266.78 1272.92   1
   4  -1   7 14157.0 2838.69   1
   4  -1   8 511.011 698.218   1
  -4  -2   4 143.660 122.277   1
  -4  -2   3 67351.2 2750.11   1
  -4  -2   2 20407.9 1828.56   1
   4   2  -2 20050.8 1642.86   1
  -4  -2   1 119398. 5115.71   1
   4   2  -1 117688. 4907.74   1
   4   2   0 311.375 220.625   1
  -4  -2   0 702.395 457.513   1
  -4  -2  -1 6845.71 2052.96   1
   4   2   1 106649. 6189.09   1
  -4   2  -2 8888.25 1548.48   1
   4  -2   2 8999.13 1558.17   1
  -4   2  -3 52941.9 4402.78   1
   4  -2   3 49834.7 3864.10   1
  -4   2  -4 12716.0 2395.75   1
   4  -2   4 12394.9 1869.59   1
  -4   2  -5 24280.3 3335.56   1
   4  -2   5 24521.4 2742.50   1
   4  -2   6 2467.57 902.346   1
  -4   2  -6 1965.37 1022.57   1
  -4   2  -7 2568.43 1635.59   1
   4  -2   7 8898.02 1796.53   1
   4  -2   8 1738.19 963.309   1
   4   3  -3 175.308 95.4613   1
   4   3  -2 324.083 296.613   1
   4   3  -1 4377.18 1079.91   1
  -4   3  -3 240.991 113.100   1
  -4   3  -4 12882.4 2276.21   1
  -4   3  -5 535.326 385.649   1
   4  -3   5 1082.91 652.478   1
   4  -3   6 2958.01 1007.26   1
  -4   3  -6 3108.64 1165.21   1
   4  -3   7 7833.48 1613.35   1
  -4   3  -7 6229.34 1817.15   1
   4  -3   8 5208.20 1224.70   1
   4  -3   9 564.650 460.295   1
   4   4  -3 12710.7 1423.33   1
  -4   4  -5 5460.93 1514.26   1
  -4   4  -6 551.084 657.408   1
  -4   4  -7 2286.43 1008.42   1
  -4   4  -8 5830.78 2109.24   1
   4   5  -4 8595.05 1120.63   1
  -4   5  -6 17.0040 312.356   1
  -4   5  -7 2663.41 837.621   1
  -4   5  -8 1049.68 838.716   1
  -5   0   1-82.4040 235.529   1
  -5   0   0 6551.73 1402.95   1
   5   0   0 5846.63 1181.73   1
   5   0   1-139.415 317.049   1
  -5   0  -1-120.504 208.273   1
   5   0   2 21764.9 2611.79   1
  -5   0  -2 20344.4 3063.25   1
  -5   0  -3-74.4604 145.925   1
   5   0   3-260.743 331.770   1
   5   0   4 40287.7 4298.77   1
  -5   0  -4 44276.8 5011.54   1
   5   0   5 358.329 386.016   1
  -5   0  -5-178.031 380.832   1
   5   0   6 44700.8 6249.14   1
  -5  -1   3 12995.7 1490.12   1
  -5  -1   2 51636.5 3341.12   1
   5   1  -1 40930.1 3017.78   1
  -5  -1   1 45785.2 3626.67   1
  -5  -1   0 8728.08 1707.20   1
   5   1   0 8231.97 1446.84   1
  -5   1  -1 6615.89 1448.42   1
   5   1   1 4983.69 1268.03   1
  -5  -1  -1 6971.36 1681.66   1
   5  -1   1 6945.73 1479.06   1
   5   1   2 63683.7 5181.26   1
   5  -1   2 64903.5 4306.46   1
  -5  -1  -2 61340.0 5361.39   1
  -5   1  -2 65441.9 5034.26   1
  -5   1  -3 12686.8 2422.39   1
  -5  -1  -3 10703.5 2356.64   1
   5  -1   3 10410.9 1770.55   1
   5   1   3 10515.7 2311.90   1
   5   1   4 371.124 338.638   1
  -5   1  -4 1536.76 1221.72   1
   5  -1   4 655.805 604.205   1
  -5  -1  -4-852.840 845.925   1
   5  -1   5 9657.84 1882.84   1
  -5   1  -5 10325.2 2392.29   1
  -5   1  -6 10900.2 2683.15   1
   5  -1   6 11839.0 2384.06   1
   5  -1   7 2950.22 1308.99   1
   5  -1   8-32.2584 582.778   1
  -5  -2   6 122.183 92.7487   1
  -5  -2   5 534.882 219.828   1
  -5  -2   4 3018.47 650.421   1
  -5  -2   3 4483.09 880.998   1
   5   2  -2 804.902 421.046   1
  -5  -2   2 552.782 416.956   1
   5   2  -1 201.721 178.377   1
  -5  -2   1 53.2850 246.862   1
  -5  -2   0 1419.05 679.867   1
   5   2   0 1264.62 674.014   1
   5   2   1 1093.69 655.833   1
  -5  -2  -1 940.538 722.260   1
  -5   2  -2 2893.28 1014.99   1
  -5  -2  -2 138.202 253.350   1
   5   2   2 3715.03 1397.74   1
   5  -2   2 4037.40 1193.92   1
  -5   2  -3 4722.80 1325.30   1
   5  -2   3 6073.27 1433.44   1
  -5   2  -4 10707.9 2437.57   1
   5  -2   4 9278.13 1676.47   1
   5  -2   5 5669.21 1375.35   1
  -5   2  -5 4577.80 1433.79   1
   5  -2   6 4077.50 1152.98   1
  -5   2  -6 3977.24 1432.54   1
   5  -2   7 8022.27 1773.91   1
  -5   2  -7 7785.39 2164.93   1
   5  -2   8 4485.54 1439.36   1
   5  -2   9 256.964 304.650   1
   5   3  -3 4540.83 786.640   1
   5   3  -2 19780.7 1936.85   1
   5   3  -1 18906.9 2511.53   1
   5  -3   4 23715.0 3144.59   1
  -5   3  -4 25371.0 3397.29   1
  -5   3  -5 6567.57 1762.71   1
   5  -3   5 7379.29 1675.64   1
  -5   3  -6 4592.14 1551.38   1
   5  -3   6 4994.93 1312.67   1
  -5   3  -7-247.667 446.897   1
   5  -3   7 181.248 349.860   1
  -5   3  -8 870.179 881.985   1
   5  -3   8 810.780 674.517   1
   5  -3   9-466.909 488.271   1
   5   4  -3 168.088 195.744   1
   5   4  -2 2488.66 1085.99   1
  -5   4  -5 235.714 462.973   1
  -5   4  -6 851.345 689.866   1
  -5   4  -7 247.566 264.299   1
  -5   4  -8 3553.71 1493.96   1
  -5   4  -9-2124.56 1515.96   1
   5   5  -4 1591.99 380.506   1
   5   5  -3-106.110 495.944   1
  -5   5  -7 546.121 535.561   1
  -5   5  -8 584.104 654.315   1
  -6   0   1 35.0455 264.942   1
   6   0   0 995247. 17937.7   1
  -6   0   0 999999. 18584.9   1
   6   0   1-8.19463 110.088   1
  -6   0  -1-1.92314 205.569   1
   6   0   2 32952.3 3504.87   1
  -6   0  -2 32115.9 4135.04   1
   6   0   3 184.890 46.9932   1
  -6   0  -3 232.855 329.558   1
   6   0   4 114712. 7441.63   1
  -6   0  -4 115650. 8722.85   1
   6   0   5 432.765 737.400   1
  -6   0  -5 616.405 768.161   1
  -6   0  -6-1169.90 1419.15   1
   6   0   6 14019.6 3201.25   1
   6   0   7-705.623 493.369   1
  -6  -1   3 1577.66 598.499   1
  -6  -1   2 185.178 206.589   1
  -6  -1   1 118.611 251.403   1
   6   1  -1 382.711 336.788   1
   6   1   0 14113.0 2115.89   1
  -6  -1   0 15166.8 2509.95   1
  -6   1  -1 124.603 246.177   1
   6   1   1-40.2331 65.5114   1
   6  -1   1 99.0303 215.634   1
   6  -1   2 5314.18 1281.13   1
  -6  -1  -2 4528.51 1563.34   1
   6   1   2 4301.97 1359.31   1
  -6   1  -2 5389.86 1529.73   1
  -6   1  -3 10611.8 2395.80   1
   6  -1   3 9462.40 1764.80   1
   6   1   3 8341.05 2068.29   1
  -6  -1  -3 8773.70 2337.00   1
  -6   1  -4 11968.6 2622.10   1
   6  -1   4 10355.6 1976.35   1
  -6  -1  -4 8734.45 2355.70   1
   6   1   4 10908.3 2732.72   1
  -6   1  -5-180.292 581.227   1
   6  -1   5-88.2066 116.213   1
  -6   1  -6 436.838 366.165   1
   6  -1   6 506.130 619.508   1
  -6   1  -7-1095.27 603.556   1
   6  -1   7 2.85109 471.359   1
   6  -1   8 9225.70 2984.54   1
  -6  -2   6 69.6463 59.6289   1
  -6  -2   5 3011.78 739.615   1
  -6  -2   4 1598.93 576.958   1
  -6  -2   3 140588. 5988.54   1
   6   2  -2 54725.2 3626.76   1
  -6  -2   2 53021.1 3881.92   1
  -6  -2   1 10585.3 1954.96   1
   6   2  -1 10422.7 1730.89   1
  -6  -2   0 1601.53 891.463   1
   6   2   0 1081.11 680.802   1
   6   2   1 26321.7 3518.78   1
  -6  -2  -1 27161.5 3718.97   1
   6  -2   2 75646.2 5528.75   1
  -6   2  -2 73846.0 5566.45   1
   6   2   2 71876.3 6391.09   1
  -6  -2  -2 72004.4 6621.61   1
  -6  -2  -3 66.0829 741.749   1
   6   2   3 6044.38 3014.90   1
   6  -2   3 116406. 6741.71   1
  -6   2  -3 112119. 7508.40   1
   6  -2   4 5381.59 1356.69   1
  -6   2  -4 4700.30 1553.54   1
   6  -2   5 12637.3 2208.71   1
  -6   2  -5 10020.4 2398.48   1
   6  -2   6 5796.21 1524.77   1
  -6   2  -6 3970.04 1604.18   1
   6  -2   7 10067.5 2087.12   1
  -6   2  -7 10454.8 3016.81   1
   6  -2   8 4383.55 1511.53   1
  -6  -3   4 150.642 232.815   1
   6   3  -3 11119.4 1494.00   1
  -6  -3   3 11036.5 1822.61   1
   6   3  -2 34118.1 2803.69   1
  -6  -3   2 34315.4 3354.13   1
   6   3  -1 27809.7 3026.30   1
  -6  -3   1 28967.2 3410.70   1
   6   3   0 1010.54 726.792   1
  -6  -3   0-737.506 596.517   1
   6   3   1-55.8738 254.767   1
  -6   3  -4 14851.3 2872.75   1
  -6   3  -5 17770.0 3349.40   1
   6  -3   5 20767.1 3028.02   1
  -6   3  -6 10488.5 2501.30   1
   6  -3   6 11238.8 2198.83   1
  -6   3  -7 6348.85 1877.19   1
   6  -3   7 7393.87 1828.12   1
  -6   3  -8 5364.08 1995.97   1
   6  -3   8 7204.08 1721.19   1
   6   4  -3 1037.85 338.593   1
   6   4  -2 39002.9 3637.85   1
   6   4  -1 421.115 514.275   1
  -6   4  -5 55.3833 362.220   1
  -6   4  -6 46929.3 5801.51   1
  -6   4  -7-84.1600 648.845   1
  -6   4  -8 195.955 189.215   1
   6   5  -4 645.194 333.236   1
   6   5  -3 12511.8 2100.56   1
  -6   5  -8 1511.89 1195.57   1
   6   6  -4 236.158 174.426   1
  -7   0   1 271.704 341.399   1
  -7   0   0 1130.99 767.583   1
   7   0   0 1611.26 740.641   1
   7   0   1-50.2074 324.335   1
  -7   0  -1 76.3722 121.224   1
   7   0   2 3137.77 1063.95   1
  -7   0  -2 2441.07 1282.03   1
   7   0   3 303.251 525.879   1
  -7   0  -3-251.515 711.588   1
  -7   0  -4 27009.4 4318.85   1
   7   0   4 25049.9 3658.08   1
   7   0   5 418.974 412.480   1
  -7   0  -5 775.756 1129.11   1
   7   0   6 15076.3 3415.45   1
  -7   0  -6 10312.2 3121.17   1
  -7  -1   3 10401.0 1719.37   1
  -7  -1   2 37210.0 3558.51   1
   7   1  -1 10817.2 1972.13   1
  -7  -1   1 9680.85 2113.30   1
   7   1   0 15232.0 2247.45   1
  -7  -1   0 15182.8 2803.10   1
   7   1   1 2399.48 1111.13   1
  -7   1  -1 2951.44 1100.19   1
  -7  -1  -1 3623.78 1495.09   1
   7  -1   1 3648.94 1224.59   1
   7  -1   2 67456.2 5296.89   1
   7   1   2 61996.5 5495.88   1
  -7   1  -2 65344.8 6085.21   1
  -7  -1  -2 61610.6 6251.68   1
   7  -1   3 6912.79 1577.11   1
  -7   1  -3 7487.92 2072.17   1
  -7  -1  -3 5646.56 1910.84   1
   7   1   3 6752.14 1838.73   1
   7  -1   4 1293.37 809.902   1
  -7  -1  -4-17.9547 169.969   1
  -7   1  -4-190.890 421.557   1
   7   1   4 330.888 590.599   1
   7  -1   5 13215.8 2377.55   1
   7   1   5 9600.20 2746.52   1
   7  -1   6 10033.5 2264.66   1
  -7   1  -6 7728.66 2470.76   1
  -7   1  -7 2624.55 2008.99   1
   7  -1   7 1374.00 901.108   1
  -7  -2   5 1087.88 512.918   1
  -7  -2   4 12024.2 1793.70   1
  -7  -2   3 153.153 396.505   1
  -7  -2   2 449.032 398.820   1
   7   2  -2 757.404 500.619   1
   7   2  -1 5137.24 1404.23   1
  -7  -2   1 8555.35 2217.31   1
  -7  -2   0 2232.38 1065.01   1
   7   2   0 2058.65 871.534   1
  -7  -2  -1 679.531 756.759   1
   7   2   1 1645.30 940.148   1
  -7  -2  -2 1976.11 1382.42   1
  -7   2  -2 2746.24 970.986   1
   7   2   2 1053.37 877.318   1
  -7  -2  -3 5470.10 2319.70   1
  -7   2  -3 8048.00 2105.28   1
   7  -2   3 8900.57 1983.62   1
   7   2   3 6928.60 2255.26   1
  -7   2  -4 1020.06 764.459   1
   7  -2   4 608.767 480.798   1
  -7   2  -5 1238.11 712.023   1
   7  -2   5 1786.73 847.367   1
   7  -2   6 424.841 660.531   1
  -7   2  -6 976.462 1148.99   1
   7  -2   7 14263.5 2580.47   1
  -7   2  -7 11734.6 3250.34   1
  -7  -3   4 20339.5 2345.30   1
  -7  -3   3 17003.6 2318.69   1
   7   3  -2 15623.1 2036.21   1
  -7  -3   2 15847.9 2439.82   1
   7   3  -1 45223.0 3935.58   1
  -7  -3   1 41963.1 4250.53   1
   7   3   0 78832.3 6372.20   1
  -7  -3   0 76823.6 6612.66   1
   7   3   1 14709.5 3029.53   1
  -7  -3  -1 1775.01 1338.91   1
  -7   3  -4 34775.6 4660.87   1
  -7   3  -5 3219.81 1521.96   1
   7  -3   5 4478.06 1554.18   1
  -7   3  -6 1099.23 1107.28   1
   7  -3   6-571.723 755.574   1
  -7   3  -7 352.572 469.711   1
   7  -3   7-141.021 258.518   1
   7   4  -3 1070.11 373.069   1
   7   4  -2 14.4062 261.439   1
   7   4  -1 503.455 631.135   1
   7   4   0 242.056 421.351   1
  -7   4  -6 3911.21 1823.36   1
  -7   4  -7 107.109 607.429   1
   7   5  -4 3182.10 647.660   1
   7   5  -3 37367.8 3467.01   1
   7   5  -2-248.387 305.858   1
   7   6  -4-14.0121 246.380   1
  -8   0   1-201.641 369.792   1
  -8   0   0 5003.23 1585.63   1
   8   0   0 6660.82 1647.45   1
  -8   0  -1-519.828 577.541   1
   8   0   1 348.468 459.164   1
   8   0   2 31514.5 3758.84   1
  -8   0  -2 29873.5 4584.64   1
   8   0   3 441.942 415.180   1
  -8   0  -3-246.074 349.474   1
  -8   0  -4 707.056 1134.28   1
   8   0   4 2129.50 1186.27   1
   8   0   5 332.169 487.972   1
  -8   0  -5-12.7121 276.460   1
  -8  -1   3 855.572 538.007   1
  -8  -1   2 173.278 284.231   1
   8   1  -1-65.2310 164.522   1
  -8  -1   1 96.3071 184.020   1
   8   1   0-8.60040 333.706   1
  -8  -1   0-125.422 195.095   1
   8   1   1 2461.92 1034.03   1
  -8  -1  -1 3362.92 1395.34   1
  -8   1  -1 2967.23 1287.09   1
   8  -1   1 4318.86 1590.14   1
   8   1   2 1783.20 929.947   1
  -8   1  -2 2851.08 1385.23   1
  -8  -1  -2 2157.38 1098.08   1
   8  -1   2 2375.36 1063.21   1
  -8   1  -3 8516.92 2352.86   1
  -8  -1  -3 7944.74 2477.63   1
   8   1   3 8273.79 2135.78   1
   8  -1   3 9859.81 2121.75   1
  -8  -1  -4 1512.46 1305.98   1
   8  -1   4 878.507 321.215   1
   8   1   4 173.046 223.850   1
  -8   1  -4 1002.77 840.761   1
  -8  -1  -5 21746.8 4840.56   1
   8  -1   5 21858.6 3351.86   1
   8   1   5 27011.2 4802.11   1
  -8   1  -5 26128.4 4595.64   1
  -8  -2   5 6272.65 1234.95   1
  -8  -2   4 1799.11 745.305   1
  -8  -2   3 19193.8 2697.67   1
  -8  -2   2 778.214 655.288   1
   8   2  -2 70.4831 228.195   1
   8   2  -1 43840.5 3904.57   1
  -8  -2   1 43484.2 4559.71   1
   8   2   0 1076.60 362.436   1
  -8  -2   0 1423.55 987.033   1
   8   2   1 39069.8 4432.65   1
  -8  -2  -1 35190.9 4755.17   1
   8   2   2 1636.43 1010.52   1
  -8  -2  -2 1378.73 1074.41   1
   8  -2   3 18909.9 3254.62   1
   8   2   3 15846.6 3270.69   1
  -8  -2  -3 16197.5 3812.27   1
  -8   2  -3 17870.0 3365.58   1
  -8   2  -4 182.707 131.347   1
   8   2   4 427.194 901.189   1
   8  -2   4 499.589 322.458   1
  -8   2  -5 10578.6 3013.94   1
   8  -2   5 11548.7 2455.37   1
  -8  -3   4 5174.90 1246.71   1
  -8  -3   3 1137.88 701.627   1
   8   3  -3 1249.49 812.242   1
   8   3  -2 734.396 464.047   1
  -8  -3   2-35.7774 151.780   1
   8   3  -1 3936.62 1150.56   1
  -8  -3   1 3964.77 1401.87   1
  -8  -3   0 392.567 189.127   1
   8   3   0 562.506 443.745   1
  -8  -3  -1 557.309 850.032   1
   8   3   1 18.5148 247.238   1
   8   3   2 508.895 646.970   1
  -8   3  -4 541.562 764.434   1
  -8   3  -5 933.987 923.940   1
   8  -3   5 592.795 241.971   1
   8   4  -3 2905.82 855.239   1
   8   4  -2 11126.6 2006.66   1
   8   4  -1 8298.61 1883.78   1
   8   4   0 44438.4 5521.19   1
   8   5  -4-879.271 521.128   1
   8   5  -3 341.110 275.400   1
   8   5  -2 1432.85 1121.74   1
  -9   0   1-530.554 519.035   1
  -9   0   0 1350.16 1015.53   1
   9   0   0 1900.63 1126.18   1
   9   0   1-533.538 659.239   1
  -9   0  -1 442.230 657.002   1
   9   0   2 10257.6 2323.94   1
  -9   0  -2 7622.82 2373.08   1
   9   0   3-692.201 689.258   1
  -9   0  -3-279.065 334.313   1
  -9   0  -4 5002.77 2272.71   1
   9   0   4 6426.82 1981.53   1
  -9  -1   2 907.284 792.299   1
   9   1  -1 61536.8 5578.01   1
  -9  -1   1 54434.7 5714.34   1
   9   1   0 40933.7 4300.79   1
  -9  -1   0 33055.8 4854.55   1
   9  -1   1 47388.3 5463.04   1
   9   1   1 57235.7 5349.00   1
  -9   1  -1 50961.2 5797.29   1
  -9  -1  -1 52440.9 6104.49   1
   9   1   2 643.864 618.242   1
  -9  -1  -2 959.697 784.754   1
   9  -1   2 1438.85 1059.22   1
  -9   1  -2 1421.65 1250.83   1
   9  -1   3 39597.7 4546.35   1
   9   1   3 37919.3 5049.88   1
  -9   1  -3 36157.2 5593.96   1
  -9  -1  -3 31646.0 5451.02   1
   9   1   4 19188.3 3720.85   1
   9  -1   4 23599.7 3555.21   1
  -9   1  -4 17274.9 3853.61   1
  -9  -1  -4 18631.3 4569.08   1
  -9  -2   4 10000.1 1850.46   1
  -9  -2   3 2241.50 971.354   1
  -9  -2   2 973.158 748.780   1
   9   2  -2 743.516 834.407   1
  -9  -2   1 232.865 272.847   1
   9   2  -1 152.549 263.200   1
   9   2   0 5666.94 1543.35   1
  -9  -2   0 4514.47 1888.70   1
  -9  -2  -1 903.889 860.606   1
   9   2   1 1907.33 897.887   1
   9   2   2 1690.53 1122.31   1
  -9  -2  -2 1091.56 751.267   1
   9   2   3 1932.47 1115.71   1
  -9  -2  -3 1792.79 1125.39   1
   9  -2   3 2057.70 1450.39   1
  -9   2  -3 2127.22 1349.32   1
  -9   2  -4 1329.60 1422.47   1
   9  -2   4 677.947 600.365   1
  -9  -3   4 350.076 355.220   1
  -9  -3   3 2368.55 1012.14   1
   9   3  -2 20564.7 2743.53   1
  -9  -3   2 18876.5 2971.31   1
   9   3  -1 2245.49 987.480   1
  -9  -3   1 1054.41 750.593   1
  -9  -3   0 475.746 405.678   1
   9   3   0 733.472 773.160   1
   9   3   1 1618.77 837.948   1
  -9  -3  -1 1010.56 1031.39   1
  -9  -3  -2 22846.0 4813.57   1
   9   3   2 26602.0 4625.85   1
   9   4  -3 2663.96 973.936   1
   9   4  -2 36530.7 3809.97   1
   9   4  -1 650.569 613.732   1
   9   4   0 904.742 348.817   1
   9   4   1 530.667 911.103   1
   9   5  -3 8351.49 1692.93   1
   9   5  -2 35079.2 4505.33   1
   9   5  -1 529.021 952.139   1
   9   6  -3 753.855 895.383   1
 -10   0   0 1134.44 1165.83   1
 -10   0  -1-405.327 685.962   1
  10   0   1-755.071 760.134   1
 -10   0  -2 22922.1 4472.79   1
  10   0   2 25575.7 3912.04   1
 -10  -1   2 1141.82 780.813   1
 -10  -1   1-937.074 799.704   1
  10   1  -1 1286.81 397.212   1
 -10  -1   0 419.676 535.901   1
  10   1   0 54.6495 411.692   1
  10   1   1 1233.84 798.514   1
 -10  -1  -1 704.135 717.737   1
 -10   1  -1 483.660 295.540   1
  10   1   2-398.097 478.225   1
  10  -1   2 535.808 677.996   1
 -10   1  -2 84.9093 174.739   1
 -10  -2   4-108.879 79.4866   1
 -10  -2   3 14896.0 2689.19   1
 -10  -2   2 968.173 553.398   1
  10   2  -1 38665.3 4388.74   1
 -10  -2   1 35510.5 4714.93   1
  10   2   0 244.315 373.997   1
 -10  -2   0 560.712 717.123   1
  10   2   1 27616.6 4105.41   1
 -10  -2  -1 26218.4 4812.01   1
  10   2   2 3144.87 1537.62   1
 -10  -2  -2 964.708 89.1736   1
 -10  -3   4-166.230 368.795   1
 -10  -3   3 655.410 620.539   1
 -10  -3   2 1445.46 914.942   1
  10   3  -2 1212.65 769.389   1
  10   3  -1 293.439 275.468   1
 -10  -3   1 1396.96 962.409   1
 -10  -3   0 933.910 1197.31   1
  10   3   0 71.4002 334.925   1
  10   3   1 284.464 338.965   1
 -10  -3  -1 643.454 673.290   1
  10   3   2 1823.40 1313.55   1
 -10  -3  -2 4693.15 2647.70   1
 -10  -4   3 142.361 638.808   1
  10   4  -3 3174.23 1032.74   1
  10   4  -2 19379.2 2925.47   1
 -10  -4   2 4805.94 1837.22   1
  10   4  -1 1301.60 831.194   1
 -10  -4   1-1087.12 562.498   1
  10   4   0 37520.3 5212.76   1
  10   4   1 636.226 1002.38   1
  10   5  -3-462.700 477.869   1
  10   5  -2 146.473 196.093   1
  10   5  -1 815.281 961.906   1
 -11   0   0 1261.75 1244.21   1
 -11  -1   2 3260.15 1258.14   1
 -11  -1   1 9343.30 2520.74   1
 -11  -1   0 2083.14 1218.68   1
  11   1   0 3049.61 1323.31   1
 -11  -1  -1 1766.22 1306.10   1
  11   1   1 1355.58 793.200   1
 -11  -2   3 1057.04 886.874   1
 -11  -2   2 175.390 377.862   1
 -11  -2   1-70.3433 191.435   1
  11   2  -1 2.52285 468.612   1
  11   2   0 862.761 613.151   1
 -11  -2   0 1600.06 1262.92   1
  11   2   1 1288.46 972.682   1
 -11  -2  -1 382.366 298.270   1
 -11  -3   4 5504.50 1395.62   1
 -11  -3   3 1301.34 616.959   1
 -11  -3   2 1887.26 762.216   1
  11   3  -2 4952.47 1537.04   1
 -11  -3   1 3973.89 1595.75   1
  11   3  -1 6223.66 1768.04   1
 -11  -3   0 16467.7 3774.56   1
  11   3   0 18218.5 3361.96   1
 -11  -4   3 568.972 437.516   1
  11   4  -3 822.822 1159.44   1
 -11  -4   2 2360.36 1377.40   1
  11   4  -2 1085.90 1036.58   1
  11   4  -1 1371.88 927.567   1
 -11  -4   1-236.051 217.206   1
  11   4   0-488.453 915.471   1
  11   5  -3 2675.85 1174.89   1
  11   5  -2-245.069 540.217   1
  11   5  -1 5095.60 2443.24   1
 -12  -1   1-505.625 882.290   1
 -12  -2   2 2608.64 1252.06   1
  12   2  -1 807.684 951.484   1
 -12  -2   1 1034.36 308.109   1
 -12  -3   3 1279.25 937.715   1
 -12  -3   2 3782.51 1483.77   1
  12   3  -2 7353.84 2325.35   1
 -12  -3   1 2620.37 1634.38   1
  12   3  -1 2647.90 1326.14   1
 -12  -4   3 2164.48 1268.39   1
 -12  -4   2 6635.56 2332.78   1
  12   4  -2 7930.02 2301.48   1
  12   4  -1-310.477 810.374   1
 -12  -4   1 167.173 88.4671   1
  12   5  -2 443.678 570.236   1
 -13  -4   3 1964.59 1256.33   1
   0   0   0    0.00    0.00   0

TITL slav_p10_s1 in P2(1)/c
REM P2(1)/c (#14 in standard setting)
CELL 0.41106   8.723897   8.506646   6.504476  90.0000  90.6974  90.0000
ZERR    4.00   0.001086   0.006686   0.001284   0.0000   0.0159   0.0000
LATT  1
SYMM -x, y+1/2,-z+1/2
SFAC O Al Si Sr
UNIT 32.00 8.00 8.00 4.00
TREF
HKLF 4
END
;
_shelx_hkl_checksum              91317
loop_
_space_group_symop_operation_xyz
'x, y, z'
'-x, y+1/2, -z+1/2'
'-x, -y, -z'
'x, -y-1/2, z-1/2'
loop_
_atom_site_label
_atom_site_type_symbol
_atom_site_fract_x
_atom_site_fract_y
_atom_site_fract_z
_atom_site_U_iso_or_equiv
_atom_site_adp_type
_atom_site_occupancy
_atom_site_site_symmetry_order
_atom_site_calc_flag
_atom_site_refinement_flags_posn
_atom_site_refinement_flags_adp
_atom_site_refinement_flags_occupancy
_atom_site_disorder_assembly
_atom_site_disorder_group
Sr1 Sr 0.75103(16) 0.6155(4) 0.2685(3) 0.0354(17) Uani 1 1 d . . . . .
Si1 Si 0.5849(5) 0.5420(16) 0.7818(9) 0.042(5) Uani 1 1 d . . . . .
Si2 Si 1.0747(5) 0.7253(14) 0.5185(9) 0.028(4) Uani 1 1 d . . . . .
Al1 Al 0.9104(6) 0.5240(16) 0.8126(9) 0.031(5) Uani 1 1 d . . . . .
Al2 Al 0.4051(6) 0.7704(18) 1.0132(11) 0.041(5) Uani 1 1 d . . . . .
O3 O 1.0848(13) 0.909(3) 0.434(2) 0.022(3) Uiso 1 1 d . . . . .
O5 O 0.5811(14) 0.640(3) 0.570(2) 0.027(3) Uiso 1 1 d . . . . .
O8 O 0.5901(16) 0.354(3) 0.748(2) 0.029(4) Uiso 1 1 d . . . . .
O2 O 0.9418(14) 0.345(3) 0.734(2) 0.024(3) Uiso 1 1 d . . . . .
O4 O 0.4218(14) 0.591(3) 0.885(2) 0.024(3) Uiso 1 1 d . . . . .
O1 O 0.7372(12) 0.608(3) 0.897(2) 0.017(3) Uiso 1 1 d . . . . .
O7 O 0.9164(12) 0.633(2) 0.585(2) 0.018(3) Uiso 1 1 d . . . . .
O6 O 1.2347(13) 0.645(3) 0.564(2) 0.022(3) Uiso 1 1 d . . . . .
loop_
_atom_site_aniso_label
_atom_site_aniso_U_11
_atom_site_aniso_U_22
_atom_site_aniso_U_33
_atom_site_aniso_U_23
_atom_site_aniso_U_13
_atom_site_aniso_U_12
Sr1 0.0208(10) 0.053(5) 0.0325(14) -0.0025(10) -0.0049(8) -0.0006(9)
Si1 0.018(2) 0.081(16) 0.028(3) 0.001(4) -0.005(2) -0.001(4)
Si2 0.020(2) 0.034(13) 0.029(4) 0.003(3) -0.009(2) -0.001(3)
Al1 0.021(2) 0.048(16) 0.023(3) 0.006(3) -0.004(2) 0.002(4)
Al2 0.023(3) 0.067(18) 0.032(4) 0.001(4) -0.007(2) 0.000(4)
loop_
_atom_type_symbol
_atom_type_description
_atom_type_scat_dispersion_real
_atom_type_scat_dispersion_imag
_atom_type_scat_source
O O 0.0017 0.0018 'International Tables Vol C Tables 4.2.6.8 and 6.1.1.4'
Al Al 0.0192 0.0163 'International Tables Vol C Tables 4.2.6.8 and 6.1.1.4'
Si Si 0.0265 0.0226 'International Tables Vol C Tables 4.2.6.8 and 6.1.1.4'
Sr Sr 0.2429 1.2951 'International Tables Vol C Tables 4.2.6.8 and 6.1.1.4'
loop_
_geom_angle_atom_site_label_1
_geom_angle_atom_site_label_2
_geom_angle_atom_site_label_3
_geom_angle
_geom_angle_site_symmetry_1
_geom_angle_site_symmetry_3
_geom_angle_publ_flag
O1 Sr1 O6 114.8(7) 1_554 3_766 ?
O1 Sr1 O5 140.2(4) 1_554 . ?
O6 Sr1 O5 75.7(7) 3_766 . ?
O1 Sr1 O1 110.8(5) 1_554 4_575 ?
O6 Sr1 O1 134.4(5) 3_766 4_575 ?
O5 Sr1 O1 68.0(7) . 4_575 ?
O1 Sr1 O7 147.5(4) 1_554 . ?
O6 Sr1 O7 70.4(6) 3_766 . ?
O5 Sr1 O7 71.9(4) . . ?
O1 Sr1 O7 72.5(5) 4_575 . ?
O1 Sr1 O4 64.1(6) 1_554 3_666 ?
O6 Sr1 O4 64.8(6) 3_766 3_666 ?
O5 Sr1 O4 90.6(6) . 3_666 ?
O1 Sr1 O4 139.4(5) 4_575 3_666 ?
O7 Sr1 O4 134.7(7) . 3_666 ?
O1 Sr1 O3 60.3(6) 1_554 2_745 ?
O6 Sr1 O3 66.2(6) 3_766 2_745 ?
O5 Sr1 O3 141.8(8) . 2_745 ?
O1 Sr1 O3 145.5(5) 4_575 2_745 ?
O7 Sr1 O3 97.9(5) . 2_745 ?
O4 Sr1 O3 70.2(5) 3_666 2_745 ?
O1 Sr1 O2 91.9(4) 1_554 3_766 ?
O6 Sr1 O2 94.0(6) 3_766 3_766 ?
O5 Sr1 O2 126.7(5) . 3_766 ?
O1 Sr1 O2 86.4(6) 4_575 3_766 ?
O7 Sr1 O2 55.7(4) . 3_766 ?
O4 Sr1 O2 132.3(7) 3_666 3_766 ?
O3 Sr1 O2 62.1(6) 2_745 3_766 ?
O1 Sr1 O7 67.6(5) 1_554 4_575 ?
O6 Sr1 O7 146.6(4) 3_766 4_575 ?
O5 Sr1 O7 125.4(7) . 4_575 ?
O1 Sr1 O7 57.3(4) 4_575 4_575 ?
O7 Sr1 O7 90.6(4) . 4_575 ?
O4 Sr1 O7 131.5(5) 3_666 4_575 ?
O3 Sr1 O7 90.6(6) 2_745 4_575 ?
O2 Sr1 O7 52.9(6) 3_766 4_575 ?
O1 Sr1 O5 63.0(6) 1_554 4_575 ?
O6 Sr1 O5 151.2(4) 3_766 4_575 ?
O5 Sr1 O5 89.2(5) . 4_575 ?
O1 Sr1 O5 55.8(5) 4_575 4_575 ?
O7 Sr1 O5 128.3(6) . 4_575 ?
O4 Sr1 O5 91.5(6) 3_666 4_575 ?
O3 Sr1 O5 122.9(5) 2_745 4_575 ?
O2 Sr1 O5 114.6(7) 3_766 4_575 ?
O7 Sr1 O5 61.6(4) 4_575 4_575 ?
O1 Sr1 O8 85.9(4) 1_554 3_666 ?
O6 Sr1 O8 97.9(6) 3_766 3_666 ?
O5 Sr1 O8 54.4(4) . 3_666 ?
O1 Sr1 O8 83.1(6) 4_575 3_666 ?
O7 Sr1 O8 126.1(4) . 3_666 ?
O4 Sr1 O8 56.9(6) 3_666 3_666 ?
O3 Sr1 O8 126.0(6) 2_745 3_666 ?
O2 Sr1 O8 167.7(9) 3_766 3_666 ?
O7 Sr1 O8 115.4(6) 4_575 3_666 ?
O5 Sr1 O8 53.8(6) 4_575 3_666 ?
O1 Sr1 Al1 82.1(3) 1_554 3_766 ?
O6 Sr1 Al1 72.6(4) 3_766 3_766 ?
O5 Sr1 Al1 135.7(4) . 3_766 ?
O1 Sr1 Al1 116.6(3) 4_575 3_766 ?
O7 Sr1 Al1 68.7(3) . 3_766 ?
O4 Sr1 Al1 102.9(5) 3_666 3_766 ?
O3 Sr1 Al1 33.8(4) 2_745 3_766 ?
O2 Sr1 Al1 30.2(6) 3_766 3_766 ?
O7 Sr1 Al1 74.9(3) 4_575 3_766 ?
O5 Sr1 Al1 131.6(4) 4_575 3_766 ?
O8 Sr1 Al1 159.6(6) 3_666 3_766 ?
O5 Si1 O8 113.3(11) . . ?
O5 Si1 O1 102.9(10) . . ?
O8 Si1 O1 112.6(10) . . ?
O5 Si1 O4 102.1(10) . . ?
O8 Si1 O4 109.6(12) . . ?
O1 Si1 O4 115.7(9) . . ?
O5 Si1 Al2 34.3(5) . 4_575 ?
O8 Si1 Al2 119.5(7) . 4_575 ?
O1 Si1 Al2 122.3(10) . 4_575 ?
O4 Si1 Al2 68.3(7) . 4_575 ?
O5 Si1 Al1 95.6(5) . . ?
O8 Si1 Al1 85.8(7) . . ?
O1 Si1 Al1 34.3(7) . . ?
O4 Si1 Al1 148.9(6) . . ?
Al2 Si1 Al1 128.2(4) 4_575 . ?
O5 Si1 Sr1 96.8(6) . 3_666 ?
O8 Si1 Sr1 66.6(5) . 3_666 ?
O1 Si1 Sr1 158.3(6) . 3_666 ?
O4 Si1 Sr1 49.9(8) . 3_666 ?
Al2 Si1 Sr1 71.1(2) 4_575 3_666 ?
Al1 Si1 Sr1 152.4(5) . 3_666 ?
O5 Si1 Sr1 61.3(8) . 4_576 ?
O8 Si1 Sr1 150.4(6) . 4_576 ?
O1 Si1 Sr1 48.4(8) . 4_576 ?
O4 Si1 Sr1 99.8(10) . 4_576 ?
Al2 Si1 Sr1 73.9(4) 4_575 4_576 ?
Al1 Si1 Sr1 66.8(3) . 4_576 ?
Sr1 Si1 Sr1 140.4(3) 3_666 4_576 ?
O5 Si1 Sr1 133.0(9) . 1_556 ?
O8 Si1 Sr1 106.6(6) . 1_556 ?
O1 Si1 Sr1 36.5(5) . 1_556 ?
O4 Si1 Sr1 86.3(5) . 1_556 ?
Al2 Si1 Sr1 132.4(5) 4_575 1_556 ?
Al1 Si1 Sr1 63.08(17) . 1_556 ?
Sr1 Si1 Sr1 121.8(2) 3_666 1_556 ?
Sr1 Si1 Sr1 71.73(19) 4_576 1_556 ?
O5 Si1 Sr1 31.4(7) . . ?
O8 Si1 Sr1 91.9(7) . . ?
O1 Si1 Sr1 91.7(5) . . ?
O4 Si1 Sr1 132.7(7) . . ?
Al2 Si1 Sr1 64.4(2) 4_575 . ?
Al1 Si1 Sr1 70.86(18) . . ?
Sr1 Si1 Sr1 110.01(17) 3_666 . ?
Sr1 Si1 Sr1 69.30(18) 4_576 . ?
Sr1 Si1 Sr1 128.19(19) 1_556 . ?
O6 Si2 O7 118.9(11) . . ?
O6 Si2 O3 114.9(9) . . ?
O7 Si2 O3 125.7(9) . . ?
O6 Si2 O2 95.2(9) . 3_766 ?
O7 Si2 O2 91.2(9) . 3_766 ?
O3 Si2 O2 90.8(11) . 3_766 ?
O6 Si2 O2 98.6(8) . 2_756 ?
O7 Si2 O2 87.9(9) . 2_756 ?
O3 Si2 O2 77.4(10) . 2_756 ?
O2 Si2 O2 164.7(8) 3_766 2_756 ?
O6 Si2 Al1 106.7(8) . 2_756 ?
O7 Si2 Al1 111.7(8) . 2_756 ?
O3 Si2 Al1 42.8(7) . 2_756 ?
O2 Si2 Al1 133.5(11) 3_766 2_756 ?
O2 Si2 Al1 35.0(8) 2_756 2_756 ?
O6 Si2 Al2 29.2(8) . 4_675 ?
O7 Si2 Al2 148.1(8) . 4_675 ?
O3 Si2 Al2 85.8(6) . 4_675 ?
O2 Si2 Al2 93.7(5) 3_766 4_675 ?
O2 Si2 Al2 95.1(5) 2_756 4_675 ?
Al1 Si2 Al2 87.2(4) 2_756 4_675 ?
O6 Si2 Al1 147.2(8) . 4_575 ?
O7 Si2 Al1 93.5(7) . 4_575 ?
O3 Si2 Al1 34.8(4) . 4_575 ?
O2 Si2 Al1 77.5(9) 3_766 4_575 ?
O2 Si2 Al1 87.3(7) 2_756 4_575 ?
Al1 Si2 Al1 61.8(3) 2_756 4_575 ?
Al2 Si2 Al1 118.4(4) 4_675 4_575 ?
O6 Si2 Sr1 134.6(9) . . ?
O7 Si2 Sr1 45.2(5) . . ?
O3 Si2 Sr1 98.5(5) . . ?
O2 Si2 Sr1 52.8(4) 3_766 . ?
O2 Si2 Sr1 118.8(4) 2_756 . ?
Al1 Si2 Sr1 118.7(3) 2_756 . ?
Al2 Si2 Sr1 146.0(4) 4_675 . ?
Al1 Si2 Sr1 64.7(2) 4_575 . ?
O6 Si2 Sr1 141.8(6) . 4_576 ?
O7 Si2 Sr1 52.3(7) . 4_576 ?
O3 Si2 Sr1 80.7(6) . 4_576 ?
O2 Si2 Sr1 120.2(5) 3_766 4_576 ?
O2 Si2 Sr1 48.8(4) 2_756 4_576 ?
Al1 Si2 Sr1 60.1(2) 2_756 4_576 ?
Al2 Si2 Sr1 143.4(4) 4_675 4_576 ?
Al1 Si2 Sr1 62.4(2) 4_575 4_576 ?
Sr1 Si2 Sr1 70.13(11) . 4_576 ?
O6 Si2 Sr1 36.7(8) . 3_766 ?
O7 Si2 Sr1 82.2(7) . 3_766 ?
O3 Si2 Sr1 151.0(5) . 3_766 ?
O2 Si2 Sr1 96.7(10) 3_766 3_766 ?
O2 Si2 Sr1 98.3(7) 2_756 3_766 ?
Al1 Si2 Sr1 125.2(2) 2_756 3_766 ?
Al2 Si2 Sr1 65.9(3) 4_675 3_766 ?
Al1 Si2 Sr1 172.7(3) 4_575 3_766 ?
Sr1 Si2 Sr1 108.3(3) . 3_766 ?
Sr1 Si2 Sr1 118.2(2) 4_576 3_766 ?
O2 Al1 O7 102.9(10) . . ?
O2 Al1 O1 128.6(11) . . ?
O7 Al1 O1 94.7(8) . . ?
O2 Al1 O3 106.7(9) . 4_576 ?
O7 Al1 O3 99.8(9) . 4_576 ?
O1 Al1 O3 117.3(10) . 4_576 ?
O2 Al1 O3 77.9(11) . 2_746 ?
O7 Al1 O3 176.8(7) . 2_746 ?
O1 Al1 O3 87.2(8) . 2_746 ?
O3 Al1 O3 77.0(10) 4_576 2_746 ?
O2 Al1 Si2 42.2(7) . 2_746 ?
O7 Al1 Si2 145.0(8) . 2_746 ?
O1 Al1 Si2 106.6(8) . 2_746 ?
O3 Al1 Si2 94.6(9) 4_576 2_746 ?
O3 Al1 Si2 36.0(7) 2_746 2_746 ?
O2 Al1 Si1 101.5(7) . . ?
O7 Al1 Si1 87.2(5) . . ?
O1 Al1 Si1 31.1(6) . . ?
O3 Al1 Si1 148.4(8) 4_576 . ?
O3 Al1 Si1 95.7(5) 2_746 . ?
Si2 Al1 Si1 96.8(4) 2_746 . ?
O2 Al1 Si2 138.6(6) . 4_576 ?
O7 Al1 Si2 89.0(7) . 4_576 ?
O1 Al1 Si2 88.7(8) . 4_576 ?
O3 Al1 Si2 31.9(8) 4_576 4_576 ?
O3 Al1 Si2 88.4(7) 2_746 4_576 ?
Si2 Al1 Si2 118.2(3) 2_746 4_576 ?
Si1 Al1 Si2 118.8(5) . 4_576 ?
O2 Al1 Al1 92.3(8) . 3_767 ?
O7 Al1 Al1 139.8(7) . 3_767 ?
O1 Al1 Al1 104.5(6) . 3_767 ?
O3 Al1 Al1 40.0(7) 4_576 3_767 ?
O3 Al1 Al1 37.0(5) 2_746 3_767 ?
Si2 Al1 Al1 61.1(4) 2_746 3_767 ?
Si1 Al1 Al1 126.3(4) . 3_767 ?
Si2 Al1 Al1 57.1(4) 4_576 3_767 ?
O2 Al1 Sr1 56.5(5) . 3_766 ?
O7 Al1 Sr1 91.1(5) . 3_766 ?
O1 Al1 Sr1 170.7(6) . 3_766 ?
O3 Al1 Sr1 54.3(6) 4_576 3_766 ?
O3 Al1 Sr1 86.7(5) 2_746 3_766 ?
Si2 Al1 Sr1 71.9(3) 2_746 3_766 ?
Si1 Al1 Sr1 157.0(5) . 3_766 ?
Si2 Al1 Sr1 84.1(2) 4_576 3_766 ?
Al1 Al1 Sr1 66.6(3) 3_767 3_766 ?
O2 Al1 Sr1 153.2(6) . 4_576 ?
O7 Al1 Sr1 57.6(6) . 4_576 ?
O1 Al1 Sr1 45.9(8) . 4_576 ?
O3 Al1 Sr1 95.5(9) 4_576 4_576 ?
O3 Al1 Sr1 122.7(7) 2_746 4_576 ?
Si2 Al1 Sr1 152.1(3) 2_746 4_576 ?
Si1 Al1 Sr1 62.4(3) . 4_576 ?
Si2 Al1 Sr1 64.6(3) 4_576 4_576 ?
Al1 Al1 Sr1 114.5(6) 3_767 4_576 ?
Sr1 Al1 Sr1 134.1(3) 3_766 4_576 ?
O2 Al1 Sr1 124.1(8) . 1_556 ?
O7 Al1 Sr1 129.7(8) . 1_556 ?
O1 Al1 Sr1 43.3(5) . 1_556 ?
O3 Al1 Sr1 84.1(5) 4_576 1_556 ?
O3 Al1 Sr1 50.7(6) 2_746 1_556 ?
Si2 Al1 Sr1 83.2(2) 2_746 1_556 ?
Si1 Al1 Sr1 68.23(19) . 1_556 ?
Si2 Al1 Sr1 68.3(2) 4_576 1_556 ?
Al1 Al1 Sr1 61.3(3) 3_767 1_556 ?
Sr1 Al1 Sr1 127.88(18) 3_766 1_556 ?
Sr1 Al1 Sr1 72.1(2) 4_576 1_556 ?
O6 Al2 O4 123.2(10) 4_476 . ?
O6 Al2 O5 122.9(13) 4_476 4_576 ?
O4 Al2 O5 113.8(9) . 4_576 ?
O6 Al2 O8 92.6(10) 4_476 2_656 ?
O4 Al2 O8 83.9(10) . 2_656 ?
O5 Al2 O8 89.7(10) 4_576 2_656 ?
O6 Al2 O8 95.2(9) 4_476 3_667 ?
O4 Al2 O8 84.3(12) . 3_667 ?
O5 Al2 O8 93.6(9) 4_576 3_667 ?
O8 Al2 O8 168.1(10) 2_656 3_667 ?
O6 Al2 Si1 96.8(8) 4_476 4_576 ?
O4 Al2 Si1 137.7(6) . 4_576 ?
O5 Al2 Si1 31.2(6) 4_576 4_576 ?
O8 Al2 Si1 109.4(9) 2_656 4_576 ?
O8 Al2 Si1 78.6(7) 3_667 4_576 ?
O6 Al2 Si2 27.2(7) 4_476 4_476 ?
O4 Al2 Si2 96.1(6) . 4_476 ?
O5 Al2 Si2 150.0(10) 4_576 4_476 ?
O8 Al2 Si2 92.3(5) 2_656 4_476 ?
O8 Al2 Si2 90.6(6) 3_667 4_476 ?
Si1 Al2 Si2 122.2(4) 4_576 4_476 ?
O6 Al2 Sr1 38.9(8) 4_476 2_656 ?
O4 Al2 Sr1 162.0(5) . 2_656 ?
O5 Al2 Sr1 83.9(9) 4_576 2_656 ?
O8 Al2 Sr1 93.5(10) 2_656 2_656 ?
O8 Al2 Sr1 98.2(8) 3_667 2_656 ?
Si1 Al2 Sr1 59.8(3) 4_576 2_656 ?
Si2 Al2 Sr1 66.1(3) 4_476 2_656 ?
O6 Al2 Sr1 136.3(10) 4_476 4_576 ?
O4 Al2 Sr1 87.0(6) . 4_576 ?
O5 Al2 Sr1 39.6(6) 4_576 4_576 ?
O8 Al2 Sr1 56.9(5) 2_656 4_576 ?
O8 Al2 Sr1 120.8(5) 3_667 4_576 ?
Si1 Al2 Sr1 69.9(2) 4_576 4_576 ?
Si2 Al2 Sr1 148.6(4) 4_476 4_576 ?
Sr1 Al2 Sr1 106.6(4) 2_656 4_576 ?
O6 Al2 Sr1 141.7(6) 4_476 1_556 ?
O4 Al2 Sr1 80.2(6) . 1_556 ?
O5 Al2 Sr1 49.3(8) 4_576 1_556 ?
O8 Al2 Sr1 121.9(5) 2_656 1_556 ?
O8 Al2 Sr1 54.1(5) 3_667 1_556 ?
Si1 Al2 Sr1 58.4(2) 4_576 1_556 ?
Si2 Al2 Sr1 144.6(4) 4_476 1_556 ?
Sr1 Al2 Sr1 115.7(2) 2_656 1_556 ?
Sr1 Al2 Sr1 66.67(11) 4_576 1_556 ?
Si2 O3 Al1 113.3(10) . 4_575 ?
Si2 O3 Al1 101.2(9) . 2_756 ?
Al1 O3 Al1 103.0(10) 4_575 2_756 ?
Si2 O3 Sr1 145.7(9) . 2_755 ?
Al1 O3 Sr1 91.9(9) 4_575 2_755 ?
Al1 O3 Sr1 94.8(10) 2_756 2_755 ?
Si1 O5 Al2 114.5(9) . 4_575 ?
Si1 O5 Sr1 128.9(11) . . ?
Al2 O5 Sr1 113.7(8) 4_575 . ?
Si1 O5 Sr1 89.0(7) . 4_576 ?
Al2 O5 Sr1 103.0(12) 4_575 4_576 ?
Sr1 O5 Sr1 96.1(6) . 4_576 ?
Si1 O8 Al2 120.6(13) . 2_646 ?
Si1 O8 Al2 116.6(11) . 3_667 ?
Al2 O8 Al2 122.8(16) 2_646 3_667 ?
Si1 O8 Sr1 83.7(7) . 3_666 ?
Al2 O8 Sr1 91.9(6) 2_646 3_666 ?
Al2 O8 Sr1 95.2(7) 3_667 3_666 ?
Al1 O2 Si2 126.8(15) . 3_766 ?
Al1 O2 Si2 102.8(9) . 2_746 ?
Si2 O2 Si2 126.9(16) 3_766 2_746 ?
Al1 O2 Sr1 93.3(9) . 3_766 ?
Si2 O2 Sr1 96.1(6) 3_766 3_766 ?
Si2 O2 Sr1 99.1(6) 2_746 3_766 ?
Si1 O4 Al2 119.9(12) . . ?
Si1 O4 Sr1 100.2(10) . 3_666 ?
Al2 O4 Sr1 138.4(7) . 3_666 ?
Si1 O1 Al1 114.6(12) . . ?
Si1 O1 Sr1 120.1(7) . 1_556 ?
Al1 O1 Sr1 106.7(6) . 1_556 ?
Si1 O1 Sr1 102.5(9) . 4_576 ?
Al1 O1 Sr1 103.5(9) . 4_576 ?
Sr1 O1 Sr1 107.9(8) 1_556 4_576 ?
Si2 O7 Al1 120.4(7) . . ?
Si2 O7 Sr1 106.9(7) . . ?
Al1 O7 Sr1 130.0(8) . . ?
Si2 O7 Sr1 100.4(10) . 4_576 ?
Al1 O7 Sr1 91.2(7) . 4_576 ?
Sr1 O7 Sr1 95.7(5) . 4_576 ?
Si2 O6 Al2 123.6(15) . 4_675 ?
Si2 O6 Sr1 120.8(9) . 3_766 ?
Al2 O6 Sr1 115.5(9) 4_675 3_766 ?
loop_
_geom_bond_atom_site_label_1
_geom_bond_atom_site_label_2
_geom_bond_distance
_geom_bond_site_symmetry_2
_geom_bond_publ_flag
Sr1 O1 2.421(14) 1_554 ?
Sr1 O6 2.47(2) 3_766 ?
Sr1 O5 2.480(16) . ?
Sr1 O1 2.50(2) 4_575 ?
Sr1 O7 2.501(12) . ?
Sr1 O4 2.52(2) 3_666 ?
Sr1 O3 2.628(19) 2_745 ?
Sr1 O2 2.701(13) 3_766 ?
Sr1 O7 2.853(18) 4_575 ?
Sr1 O5 2.86(2) 4_575 ?
Sr1 O8 2.987(14) 3_666 ?
Sr1 Al1 3.232(8) 3_766 ?
Si1 O5 1.61(2) . ?
Si1 O8 1.61(3) . ?
Si1 O1 1.618(14) . ?
Si1 O4 1.635(15) . ?
Si1 Al2 2.827(13) 4_575 ?
Si1 Al1 2.849(7) . ?
Si2 O6 1.581(16) . ?
Si2 O7 1.651(15) . ?
Si2 O3 1.66(3) . ?
Si2 O2 1.755(18) 3_766 ?
Si2 O2 1.91(2) 2_756 ?
Si2 Al1 2.771(17) 2_756 ?
Si2 Al2 2.883(7) 4_675 ?
Si2 Al1 2.890(14) 4_575 ?
Al1 O2 1.63(3) . ?
Al1 O7 1.750(17) . ?
Al1 O1 1.766(16) . ?
Al1 O3 1.797(15) 4_576 ?
Al1 O3 1.92(2) 2_746 ?
Al1 Al1 2.909(11) 3_767 ?
Al2 O6 1.690(18) 4_476 ?
Al2 O4 1.74(3) . ?
Al2 O5 1.751(18) 4_576 ?
Al2 O8 1.85(2) 2_656 ?
Al2 O8 1.88(2) 3_667 ?
