#------------------------------------------------------------------------------
#$Date: 2021-07-04 04:49:46 +0300 (Sun, 04 Jul 2021) $
#$Revision: 266973 $
#$URL: file:///home/coder/svn-repositories/cod/cif/1/56/31/1563153.cif $
#------------------------------------------------------------------------------
#
# This file is available in the Crystallography Open Database (COD),
# http://www.crystallography.net/
#
# All data on this site have been placed in the public domain by the
# contributors.
#
data_1563153
loop_
_publ_author_name
'Gorelova, Liudmila A.'
'Pakhomova, Anna S.'
'Krzhizhanovskaya, Maria G.'
'Pankin, Dmitrii V.'
'Krivovichev, Sergey V.'
'Dubrovinsky, Leonid S.'
'Kasatkin, Anatoly V.'
_publ_section_title
;
 Crystal Structure Evolution of Slawsonite SrAl2Si2O8 and Paracelsian
 BaAl2Si2O8 upon Compression and Decompression
;
_journal_issue                   23
_journal_name_full               'The Journal of Physical Chemistry C'
_journal_page_first              13014
_journal_page_last               13023
_journal_paper_doi               10.1021/acs.jpcc.1c02949
_journal_volume                  125
_journal_year                    2021
_chemical_formula_sum            'Al2 O8 Si2 Sr'
_chemical_formula_weight         325.76
_space_group_crystal_system      monoclinic
_space_group_IT_number           14
_space_group_name_Hall           '-P 2ybc'
_space_group_name_H-M_alt        'P 1 21/c 1'
_audit_creation_method           SHELXL-2018/3
_cell_angle_alpha                90
_cell_angle_beta                 90.501(6)
_cell_angle_gamma                90
_cell_formula_units_Z            4
_cell_length_a                   8.7767(5)
_cell_length_b                   8.564(4)
_cell_length_c                   6.5417(5)
_cell_measurement_reflns_used    621
_cell_measurement_temperature    293(2)
_cell_measurement_theta_max      18.962
_cell_measurement_theta_min      2.685
_cell_volume                     491.7(2)
_computing_structure_refinement  'SHELXL-2018/3 (Sheldrick, 2018)'
_diffrn_ambient_temperature      293(2)
_diffrn_measured_fraction_theta_full 0.330
_diffrn_measured_fraction_theta_max 0.194
_diffrn_measurement_device_type
'esperanto-CrysAlisPro-abstract goniometer imported esperanto images'
_diffrn_radiation_type           synchrotron
_diffrn_radiation_wavelength     0.41106
_diffrn_reflns_av_R_equivalents  0.0231
_diffrn_reflns_av_unetI/netI     0.0368
_diffrn_reflns_Laue_measured_fraction_full 0.330
_diffrn_reflns_Laue_measured_fraction_max 0.194
_diffrn_reflns_limit_h_max       12
_diffrn_reflns_limit_h_min       -12
_diffrn_reflns_limit_k_max       5
_diffrn_reflns_limit_k_min       -3
_diffrn_reflns_limit_l_max       9
_diffrn_reflns_limit_l_min       -8
_diffrn_reflns_number            621
_diffrn_reflns_point_group_measured_fraction_full 0.330
_diffrn_reflns_point_group_measured_fraction_max 0.194
_diffrn_reflns_theta_full        14.279
_diffrn_reflns_theta_max         18.962
_diffrn_reflns_theta_min         2.685
_exptl_absorpt_coefficient_mu    2.765
_exptl_crystal_colour            colorless
_exptl_crystal_density_diffrn    4.401
_exptl_crystal_density_meas      ?
_exptl_crystal_density_method    none
_exptl_crystal_description       isosymmetric
_exptl_crystal_F_000             624
_exptl_crystal_size_max          0.010
_exptl_crystal_size_mid          0.010
_exptl_crystal_size_min          0.005
_refine_diff_density_max         0.767
_refine_diff_density_min         -0.942
_refine_diff_density_rms         0.205
_refine_ls_extinction_method     none
_refine_ls_goodness_of_fit_ref   1.083
_refine_ls_hydrogen_treatment    undef
_refine_ls_matrix_type           full
_refine_ls_number_parameters     73
_refine_ls_number_reflns         393
_refine_ls_number_restraints     0
_refine_ls_restrained_S_all      1.083
_refine_ls_R_factor_all          0.0779
_refine_ls_R_factor_gt           0.0643
_refine_ls_shift/su_max          0.000
_refine_ls_shift/su_mean         0.000
_refine_ls_structure_factor_coef Fsqd
_refine_ls_weighting_details
'w=1/[\s^2^(Fo^2^)+(0.0814P)^2^+16.5369P] where P=(Fo^2^+2Fc^2^)/3'
_refine_ls_weighting_scheme      calc
_refine_ls_wR_factor_gt          0.1650
_refine_ls_wR_factor_ref         0.1768
_reflns_Friedel_coverage         0.000
_reflns_number_gt                324
_reflns_number_total             393
_reflns_threshold_expression     'I > 2\s(I)'
_cod_data_source_file            slav_p09.cif
_cod_data_source_block           shelx
_cod_depositor_comments
;
The following automatic conversions were performed:

data item '_exptl_crystal_density_meas' value 'none' was changed to
'?' -- the value is perceived as not measured.

Automatic conversion script
Id: cif_fix_values 7556 2019-12-06 15:28:31Z antanas 

 Adding full bibliography for 1563145--1563156.cif.
;
_cod_original_sg_symbol_H-M      'P 21/c'
_cod_database_code               1563153
_shelx_shelxl_version_number     2018/3
_shelx_space_group_comment
;
The symmetry employed for this shelxl refinement is uniquely defined
by the following loop, which should always be used as a source of
symmetry information in preference to the above space-group names.
They are only intended as comments.
;
_shelx_res_file
;
TITL slav_p09_s2 in P2(1)/c
    shelx.res
    created by SHELXL-2018/3 at 14:44:02 on 19-Jan-2021
REM P2(1)/c (#14 in standard setting)
CELL 0.41106   8.776701   8.563545   6.541668  90.0000  90.5013  90.0000
ZERR    4.00   0.000453   0.003539   0.000540   0.0000   0.0055   0.0000
LATT  1
SYMM -x, y+1/2,-z+1/2
SFAC O AL SI SR
DISP O 0.00165 0.00179 4.1539
DISP Si 0.026465 0.022605 52.36784
DISP Al 0.019188 0.016298 37.75624
DISP Sr 0.242892 1.295112 3000.317
UNIT 32.00 8.00 8.00 4.00

OMIT     6   3   1
OMIT     3   2   0

L.S. 20
BOND
ACTA
LIST 10
FMAP 2
PLAN 20
REM DAMP 5000
REM EXTI    0.000000
WGHT    0.081400   16.536901
FVAR       3.41549
SR1   4    0.751576    0.613672    0.269091    11.00000    0.00958    0.03675 =
         0.02466   -0.00257    0.00152   -0.00097
SI1   3    0.585115    0.545499    0.780501    11.00000    0.00908    0.06529 =
         0.02227    0.00044    0.00021    0.00233
SI2   3    1.074693    0.726369    0.518675    11.00000    0.00555    0.07715 =
         0.01496   -0.00373    0.00485    0.00308
AL1   2    0.911130    0.527765    0.813804    11.00000    0.01579
AL2   2    0.406027    0.768028    1.013579    11.00000    0.00760    0.05989 =
         0.02217   -0.00080    0.00309    0.00187
O1    1    0.738002    0.617141    0.894427    11.00000    0.01052
O2    1    0.942288    0.342033    0.729665    11.00000    0.01593
O3    1    1.083828    0.908328    0.427526    11.00000    0.01568
O4    1    0.425420    0.590707    0.884875    11.00000    0.01721
O5    1    0.583145    0.637090    0.570138    11.00000    0.01527
O6    1    1.234096    0.644191    0.570341    11.00000    0.01484
O7    1    0.916301    0.637194    0.587451    11.00000    0.01445
O8    1    0.587934    0.360122    0.748220    11.00000    0.02392
HKLF 4




REM  slav_p09_s2 in P2(1)/c
REM wR2 = 0.1768, GooF = S = 1.083, Restrained GooF = 1.083 for all data
REM R1 = 0.0643 for 324 Fo > 4sig(Fo) and 0.0779 for all 393 data
REM 73 parameters refined using 0 restraints

END

WGHT      0.0815     16.3443

REM Highest difference peak  0.767,  deepest hole -0.942,  1-sigma level  0.205
Q1    1   0.7005  0.6370  0.1577  11.00000  0.05    0.77
Q2    1   0.8923  0.5619  0.5014  11.00000  0.05    0.71
Q3    1   0.8063  0.5865  0.3949  11.00000  0.05    0.68
Q4    1   1.0388  0.2507  0.7159  11.00000  0.05    0.66
Q5    1   1.2615  0.5657  0.6327  11.00000  0.05    0.65
Q6    1   0.7379  0.6702  0.6152  11.00000  0.05    0.63
Q7    1   1.2399  0.9240  0.3631  11.00000  0.05    0.63
Q8    1   1.0233  0.9385  0.3227  11.00000  0.05    0.62
Q9    1   0.7055  0.4009  0.6636  11.00000  0.05    0.62
Q10   1   1.0126  0.9422  0.5626  11.00000  0.05    0.62
Q11   1   0.7210  0.5792  0.1891  11.00000  0.05    0.61
Q12   1   0.5995  0.2423  0.7769  11.00000  0.05    0.61
Q13   1   1.0615  0.6724  0.7233  11.00000  0.05    0.61
Q14   1   0.6233  0.7447  0.4240  11.00000  0.05    0.61
Q15   1   1.1732  0.6023  0.7184  11.00000  0.05    0.59
Q16   1   0.4384  0.6075  0.9420  11.00000  0.05    0.58
Q17   1   1.1171  0.7545  0.6669  11.00000  0.05    0.58
Q18   1   0.6726  0.6033  0.3490  11.00000  0.05    0.58
Q19   1   0.4815  0.4465  0.8763  11.00000  0.05    0.56
Q20   1   0.7174  0.5925  0.7896  11.00000  0.05    0.55
;
_shelx_res_checksum              77147
_shelx_hkl_file
;
   0  -1   5 431.044 190.612   1
   0  -1   6 379.305 239.288   1
   0   2  -3 495543. 2923.23   1
   0  -2   4 12074.9 475.595   1
   0  -2   5 18900.3 667.163   1
   0  -2   6 3951.42 350.680   1
   0  -2   7 8105.55 568.033   1
   0   3  -4 13855.9 569.537   1
   0   3  -5 29653.5 1018.06   1
   0   4  -5 2025.80 285.254   1
   0   5  -6-103.446 154.186   1
  -1   0  -1 33.0582 45.7359   1
   1   0   1-32.6198 44.8231   1
   1   0   2 18945.2 742.000   1
   1   0   3-61.6178 123.112   1
  -1   1  -2 143181. 1750.42   1
  -1   1  -3 14010.6 695.052   1
   1  -1   3 14295.2 634.648   1
   1  -1   4 1122.21 220.156   1
   1  -1   5 20940.2 1006.00   1
   1  -1   6 12077.5 836.024   1
   1  -1   7 2150.63 449.761   1
  -1  -2   7 3203.60 329.847   1
  -1  -2   6 3032.28 278.050   1
  -1  -2   5 4013.01 256.684   1
  -1   2  -3 19288.0 728.649   1
  -1   2  -4 7030.31 529.087   1
   1  -2   4 6884.31 435.830   1
   1  -2   5 6345.34 454.430   1
   1  -2   6 190.837 173.700   1
   1  -2   7 10142.3 722.060   1
   1  -2   8 79.5635 254.104   1
  -1   3  -4 82216.8 1712.68   1
  -1   3  -5 5211.99 484.096   1
   1   4  -5 82.2883 63.6184   1
  -1   4  -5 787.343 230.225   1
  -1   4  -6 6876.47 586.921   1
  -1   5  -6 300.717 194.922   1
   2   0   0 3028.44 214.683   1
  -2   0   0 2901.69 211.122   1
  -2   0  -1 0.81840 67.9843   1
   2   0   1 39.1132 73.2010   1
   2   0   2 84976.8 1763.99   1
  -2   0  -2 85005.1 1833.62   1
  -2   0  -3 374.976 297.064   1
   2   0   3 387.863 250.136   1
   2   0   4 4125.60 576.540   1
   2   0   5 261.317 290.291   1
   2   1  -1 1274.99 127.289   1
  -2  -1   1 1188.92 138.267   1
  -2  -1   0 133.196 59.5992   1
   2   1   0 276.790 91.2611   1
   2  -1   1 7751.32 417.420   1
   2   1   1 7335.09 510.968   1
  -2   1  -1 7599.87 431.116   1
  -2   1  -2 9257.10 541.189   1
   2  -1   2 9128.48 512.612   1
  -2   1  -3 34886.4 1221.73   1
   2  -1   3 33984.3 1103.49   1
   2  -1   4 200.408 174.694   1
  -2   1  -4 196.078 182.534   1
   2  -1   5 65641.3 1889.28   1
   2  -1   6 2775.81 467.585   1
  -2  -2   7 2931.09 232.604   1
  -2   2  -3 67167.3 1597.73   1
   2  -2   3 68421.8 1478.72   1
   2  -2   4 2174.94 300.896   1
  -2   2  -4 2661.13 374.084   1
  -2   2  -5 31857.9 1334.08   1
   2  -2   5 30416.6 1152.57   1
   2  -2   6-555.927 326.874   1
   2  -2   7 1221.47 317.527   1
   2  -2   8 2465.42 433.374   1
  -2   3  -4 1117.98 278.879   1
  -2   3  -5 255.569 213.249   1
  -2   3  -6 179.529 220.675   1
   2  -3   7-250.397 218.341   1
  -2   4  -5 534.965 261.864   1
  -2   4  -6 5524.41 597.163   1
  -2   4  -7 51.1031 247.660   1
  -2   5  -6 5306.48 597.366   1
  -2   5  -7 1721.30 396.986   1
  -3   0   0 3102.60 292.572   1
   3   0   0 3410.49 278.765   1
   3   0   1-97.6078 98.3839   1
  -3   0  -1-48.4753 107.491   1
   3   0   2 82424.0 1929.79   1
  -3   0  -2 82475.1 2034.74   1
   3   0   3-183.336 150.610   1
  -3   0  -3 98.9053 163.399   1
   3   0   5-27.2235 228.609   1
  -3  -1   1 324561. 2844.81   1
  -3  -1   0 289678. 3144.08   1
   3   1   0 288587. 2943.61   1
   3   1   1 310659. 3685.45   1
  -3  -1  -1 312530. 3882.38   1
   3  -1   2 18844.4 858.780   1
  -3  -1  -2 16853.0 1084.76   1
  -3   1  -2 18031.9 900.639   1
   3  -1   3 183102. 2849.41   1
  -3   1  -3 182904. 3099.91   1
   3  -1   4 111374. 2394.22   1
  -3   1  -4 108402. 2737.24   1
  -3   1  -5 47680.7 2016.59   1
   3  -1   5 47587.4 1753.98   1
   3  -1   6-351.664 282.259   1
   3  -1   7 679.742 341.281   1
   3   2  -2-39.0933 69.3785   1
   3   2  -1 27227.1 880.582   1
   3   2   0 33.8548 143.586   1
  -3   2  -2 1874.29 318.075   1
  -3   2  -3 12214.1 786.822   1
   3  -2   3 12141.9 709.923   1
   3  -2   4 17596.4 897.862   1
  -3   2  -4 21113.9 1091.45   1
   3  -2   5 99063.7 2249.97   1
  -3   2  -5 102526. 2654.30   1
   3  -2   6 174.546 241.826   1
  -3   2  -6 1535.43 492.640   1
   3  -2   7 5295.73 626.530   1
   3  -2   8 933.940 330.120   1
  -3   3  -4 418.675 231.926   1
  -3   3  -5 28384.0 1332.10   1
  -3   3  -6 47577.5 1877.36   1
   3  -3   7 11145.8 804.109   1
  -3   3  -7 10815.5 1001.37   1
   3  -3   8 954.933 308.544   1
  -3   4  -5 4785.16 523.938   1
  -3   4  -6 36078.5 1579.75   1
  -3   4  -7 11041.7 956.786   1
  -3   5  -7 941.938 400.051   1
  -4   0   1 74.1696 104.002   1
   4   0   0 11227.6 589.571   1
  -4   0   0 10506.9 604.615   1
  -4   0  -1-36.5734 118.543   1
   4   0   1 14.8094 100.705   1
   4   0   2 110650. 2456.29   1
  -4   0  -2 109924. 2679.58   1
  -4   0  -3-64.4856 199.657   1
   4   0   3-145.905 196.978   1
  -4   0  -4 9974.00 983.119   1
   4   0   4 9464.79 920.248   1
   4   0   5 434.892 367.294   1
   4   0   6 18553.8 1437.90   1
  -4  -1   2 5914.18 396.506   1
  -4  -1   1 133.309 136.979   1
   4   1  -1 447.243 120.756   1
  -4  -1   0 981.186 246.396   1
   4   1   0 927.404 214.558   1
  -4  -1  -1 7406.17 671.251   1
   4   1   1 6708.56 619.640   1
  -4   1  -1 6870.94 579.869   1
   4  -1   1 7440.23 556.451   1
  -4  -1  -2 4156.64 580.412   1
   4   1   2 3523.34 536.757   1
   4  -1   2 4590.29 478.128   1
  -4   1  -2 4128.60 501.393   1
  -4   1  -3 11052.0 834.488   1
  -4  -1  -3 9668.33 985.251   1
   4  -1   3 11428.9 775.713   1
   4   1   3 10677.4 964.962   1
  -4   1  -4 12856.3 1003.16   1
   4  -1   4 11230.4 852.638   1
   4  -1   5 5797.42 675.181   1
  -4   1  -5 7041.41 855.784   1
   4  -1   6 5410.52 709.719   1
   4  -1   7 9086.22 930.785   1
   4  -1   8 880.348 451.850   1
  -4  -2   4 552.536 146.934   1
  -4  -2   3 106036. 1692.63   1
  -4  -2   2 25185.8 969.584   1
   4   2  -2 24787.4 775.571   1
   4   2  -1 133482. 2153.44   1
  -4  -2   0 777.308 284.945   1
   4   2   0 913.769 242.396   1
  -4   2  -2 6994.12 637.587   1
   4  -2   3 51878.1 1658.72   1
  -4   2  -3 50839.0 1801.34   1
   4  -2   4 12490.2 837.124   1
  -4   2  -4 13443.8 1002.38   1
   4  -2   5 25352.6 1265.92   1
  -4   2  -5 27817.3 1475.81   1
   4  -2   6 1891.90 420.660   1
  -4   2  -6 2752.25 563.573   1
   4  -2   7 7151.75 745.967   1
   4  -2   8 931.036 379.155   1
   4   3  -3 254.519 107.799   1
   4   3  -2 108.173 122.409   1
   4   3  -1 4887.59 515.185   1
  -4   3  -4 15648.4 1055.58   1
  -4   3  -5 1263.52 358.975   1
  -4   3  -6 3702.37 641.313   1
   4  -3   6 2783.52 425.945   1
  -4   3  -7 8010.59 930.816   1
   4  -3   7 7779.41 736.236   1
   4  -3   8 4392.73 599.587   1
   4   4  -3 13849.0 636.831   1
  -4   4  -5 6606.26 733.737   1
  -4   4  -6 780.905 401.870   1
  -4   4  -7 2067.60 458.591   1
  -4   4  -8 3062.59 597.548   1
   4   5  -4 6352.57 382.170   1
  -4   5  -7 5281.64 717.508   1
  -5   0   1 25.8169 129.414   1
   5   0   0 5793.57 488.018   1
  -5   0   0 5644.65 499.113   1
  -5   0  -1-167.281 237.370   1
   5   0   1 108.942 154.908   1
  -5   0  -2 22817.9 1303.39   1
   5   0   2 23617.0 1178.24   1
  -5   0  -3-323.466 349.753   1
   5   0   3-7.98743 189.745   1
  -5   0  -4 57910.0 2477.16   1
   5   0   4 54394.9 2155.05   1
  -5   0  -5 348.206 308.308   1
   5   0   5 129.453 324.795   1
   5   0   6 42281.9 2269.71   1
  -5  -1   3 20869.0 819.623   1
  -5  -1   2 58306.9 1449.69   1
   5   1  -1 43291.1 1251.31   1
  -5  -1   1 43414.3 1408.30   1
   5   1   0 7882.14 592.699   1
  -5  -1   0 7259.66 654.291   1
  -5   1  -1 6511.21 678.852   1
  -5  -1  -1 5257.86 667.767   1
   5  -1   1 6639.26 601.022   1
   5   1   1 5537.96 607.469   1
   5   1   2 70288.4 2203.73   1
  -5   1  -2 66426.4 2156.86   1
   5  -1   2 68883.7 1996.95   1
  -5   1  -3 11790.9 964.502   1
   5   1   3 11824.4 977.167   1
  -5  -1  -3 10677.2 1054.98   1
   5  -1   3 10870.7 847.045   1
  -5   1  -4 84.4856 299.606   1
   5   1   4-162.046 342.341   1
   5  -1   4 263.353 226.511   1
   5  -1   5 12286.7 991.609   1
  -5   1  -5 13464.9 1156.39   1
  -5   1  -6 8888.34 1234.57   1
   5  -1   6 11029.6 1032.75   1
   5  -1   7 1535.37 484.904   1
   5  -1   8 569.764 452.408   1
  -5  -2   5 1906.98 299.299   1
  -5  -2   4 6772.53 470.457   1
  -5  -2   3 8164.49 550.771   1
  -5  -2   2 900.566 249.352   1
   5   2  -2 1020.23 239.360   1
  -5  -2   1 251.686 202.601   1
   5   2  -1 192.081 146.456   1
   5   2   0 1871.65 371.175   1
  -5  -2   0 1739.19 406.808   1
  -5  -2  -1 1017.88 358.891   1
   5   2   1 1226.76 358.684   1
   5   2   2 2586.13 575.619   1
  -5   2  -2 3286.36 520.402   1
   5  -2   3 6441.08 665.041   1
  -5   2  -3 7030.19 757.670   1
  -5   2  -4 12130.7 1017.66   1
   5  -2   4 11682.9 898.363   1
   5  -2   5 5380.67 646.174   1
  -5   2  -5 5595.20 742.738   1
   5  -2   6 4922.44 659.074   1
  -5   2  -6 5729.00 875.923   1
   5  -2   7 8379.30 904.380   1
  -5   2  -7 8021.43 1117.19   1
   5  -2   8 2345.16 525.780   1
   5   3  -3 6274.78 416.645   1
   5   3  -2 26457.8 973.067   1
  -5   3  -4 31304.4 1590.43   1
  -5   3  -5 9885.03 973.205   1
   5  -3   6 3394.97 522.297   1
  -5   3  -6 4144.72 716.791   1
   5  -3   7 618.135 439.932   1
  -5   3  -7-123.089 341.469   1
   5  -3   8 121.325 382.504   1
  -5   3  -8 1454.74 542.434   1
   5  -3   9 256.570 326.310   1
   5   4  -4 4091.31 299.777   1
   5   4  -3 245.149 152.797   1
   5   4  -2 1434.01 315.224   1
  -5   4  -6 1051.65 575.094   1
  -5   4  -7 271.213 389.789   1
  -5   4  -8 4258.26 742.756   1
   5   5  -4 1766.66 220.984   1
  -6   0   1 21.0062 169.053   1
   6   0   0 997046. 7371.17   1
  -6   0   0 999999. 7891.01   1
  -6   0  -1 108.323 184.687   1
   6   0   1 55.1004 206.201   1
   6   0   2 35998.9 1644.30   1
  -6   0  -2 38266.5 1855.37   1
  -6   0  -3-92.2513 235.609   1
   6   0   3-138.723 251.670   1
  -6   0  -4 137959. 4253.72   1
   6   0   4 141050. 3561.06   1
  -6   0  -5-228.895 346.807   1
   6   0   5 380.342 321.445   1
   6   0   6 11963.4 1244.19   1
   6   0   7-525.941 389.132   1
  -6  -1   3 4456.81 426.405   1
  -6  -1   2 827.135 259.917   1
  -6  -1   1 567.480 215.776   1
   6   1  -1 515.362 214.614   1
   6   1   0 14246.9 861.485   1
  -6  -1   0 12805.8 962.953   1
   6  -1   1 110.413 204.504   1
  -6   1  -1-105.730 256.840   1
   6   1   1 67.2102 172.116   1
  -6  -1  -1 156.365 210.982   1
  -6   1  -2 6982.78 712.653   1
   6  -1   2 5814.57 639.452   1
  -6  -1  -2 4400.98 754.875   1
   6   1   2 4774.10 654.002   1
   6   1   3 9971.41 972.753   1
  -6   1  -3 11090.5 970.752   1
  -6  -1  -3 9416.25 1021.15   1
   6  -1   3 10423.7 890.709   1
   6   1   4 13332.9 1229.94   1
   6  -1   4 14556.0 1135.66   1
  -6  -1  -4 13232.9 1345.07   1
  -6   1  -4 15624.8 1248.89   1
   6   1   5 787.043 476.125   1
   6  -1   5 427.533 450.876   1
  -6   1  -5-167.155 326.805   1
   6  -1   6 1160.57 486.637   1
  -6   1  -6 534.247 428.764   1
   6  -1   7 609.720 448.186   1
   6  -1   8 5053.08 916.098   1
  -6  -2   4 2924.53 353.659   1
  -6  -2   3 209219. 3139.36   1
   6   2  -2 80667.7 1770.08   1
  -6  -2   2 77780.0 2083.34   1
  -6  -2   1 13470.4 1027.58   1
   6   2  -1 14029.7 872.482   1
  -6  -2   0 821.626 260.942   1
   6   2   0 550.297 227.880   1
   6   2   1 27983.0 1503.72   1
  -6   2  -3 141765. 3519.90   1
   6  -2   4 4880.29 692.375   1
  -6   2  -4 5883.70 788.103   1
   6  -2   5 13103.5 1117.14   1
  -6   2  -5 15768.1 1368.07   1
   6  -2   6 5186.07 746.197   1
  -6   2  -6 7014.51 957.839   1
  -6   2  -7 6636.26 1051.69   1
   6  -2   7 6969.86 852.077   1
   6  -2   8 2892.36 668.824   1
  -6  -3   3 12254.2 909.736   1
   6   3  -3 13125.2 672.342   1
   6   3  -2 44408.7 1351.14   1
  -6  -3   1 30972.0 1682.06   1
   6   3  -1 33460.3 1345.66   1
   6   3   0 1580.70 444.403   1
   6   3   1 548.898 400.391   1
  -6   3  -4 21568.8 1442.82   1
  -6   3  -5 23105.1 1532.08   1
  -6   3  -6 15711.4 1382.97   1
   6  -3   7 6768.00 831.897   1
  -6   3  -7 8806.92 1135.23   1
   6  -3   8 5082.46 711.060   1
  -6   3  -8 5926.10 1071.44   1
   6  -3   9 422.962 393.517   1
   6   4  -3 896.846 208.514   1
   6   4  -2 49229.4 1558.66   1
   6   4  -1 705.847 218.669   1
  -6   4  -6 64653.0 2712.55   1
  -6   4  -7 146.520 364.978   1
  -6   4  -8 552.439 484.145   1
   6   5  -4 651.931 210.823   1
   6   5  -3 10422.4 664.331   1
  -7   0   1 66.6581 244.600   1
  -7   0   0 2412.09 455.863   1
   7   0   0 2592.11 426.269   1
  -7   0  -1 21.7165 278.857   1
   7   0   1 274.149 297.111   1
   7   0   2 4631.63 633.562   1
  -7   0  -2 4510.63 761.231   1
  -7   0  -3 181.293 324.057   1
   7   0   3-118.227 341.464   1
  -7   0  -4 34380.8 2179.96   1
   7   0   4 32536.7 1870.37   1
   7   0   5 415.427 479.840   1
  -7   0  -5 513.728 524.095   1
  -7   0  -6 13714.5 1639.84   1
   7   0   6 12859.4 1367.75   1
   7   0   7-444.580 567.248   1
  -7  -1   3 18166.2 908.198   1
  -7  -1   2 51587.6 1777.41   1
   7   1  -1 13861.5 898.356   1
  -7  -1   1 13355.1 987.179   1
   7   1   0 17694.2 1091.37   1
  -7  -1   0 16839.7 1234.46   1
   7   1   1 4364.37 634.860   1
  -7  -1  -1 3163.76 664.940   1
  -7   1  -1 3517.14 524.665   1
   7  -1   2 72526.2 2456.42   1
   7   1   2 69862.4 2521.66   1
  -7   1  -2 71971.0 2741.90   1
   7  -1   3 9185.70 882.858   1
  -7   1  -3 9142.31 993.277   1
   7   1   3 9806.50 1016.79   1
  -7  -1  -3 9083.76 1062.30   1
   7  -1   4 955.698 414.376   1
  -7  -1  -4 365.531 446.153   1
  -7   1  -4 794.528 531.523   1
   7   1   4 687.701 458.704   1
   7   1   5 12850.9 1354.68   1
   7  -1   5 11887.3 1254.84   1
   7  -1   6 11357.3 1168.84   1
  -7   1  -6 9589.87 1351.75   1
  -7   1  -7 781.008 591.999   1
   7  -1   7 1154.00 540.502   1
  -7  -2   5 7238.72 628.226   1
  -7  -2   4 27549.9 1202.85   1
  -7  -2   3 409.520 313.151   1
   7   2  -2 1379.22 290.008   1
  -7  -2   2 961.737 335.993   1
  -7  -2   1 906.104 296.482   1
   7   2  -1 1482.44 363.739   1
  -7  -2   0 2872.33 688.184   1
   7   2   0 2949.00 534.666   1
  -7  -2  -1 1267.26 528.703   1
   7   2   1 1752.79 453.157   1
   7   2   2 1824.49 528.880   1
  -7  -2  -2 1119.27 603.174   1
  -7   2  -3 11962.7 1101.61   1
   7  -2   3 10110.9 982.017   1
  -7  -2  -3 8648.49 1140.20   1
   7   2   3 8454.80 971.847   1
   7  -2   4 738.790 262.084   1
  -7   2  -4 1393.36 495.396   1
   7  -2   5 3208.65 607.784   1
  -7   2  -5 3948.66 865.465   1
   7  -2   6 525.200 324.033   1
  -7   2  -6-269.286 428.478   1
   7  -2   7 14991.8 1383.78   1
  -7   2  -7 13254.8 1628.76   1
  -7  -3   4 34959.4 1524.16   1
  -7  -3   3 25809.2 1420.05   1
   7   3  -3 27000.7 1071.04   1
  -7  -3   2 21880.8 1391.18   1
   7   3  -2 25039.3 1099.60   1
  -7  -3   1 51963.2 2286.21   1
   7   3  -1 55252.2 1789.91   1
   7   3   1 11312.3 1201.67   1
  -7   3  -4 43709.8 2284.65   1
  -7   3  -5 4370.30 910.102   1
  -7   3  -6 862.711 647.411   1
  -7   3  -7 1278.38 769.450   1
   7   4  -3 2651.62 358.057   1
   7   4  -2 334.336 256.265   1
   7   4  -1 331.487 292.843   1
  -7   4  -7 415.046 546.298   1
   7   5  -4 3760.80 369.527   1
   7   5  -3 41074.2 1365.49   1
   7   5  -2 178.336 256.953   1
  -8   0   1 165.664 247.598   1
  -8   0   0 5660.70 698.756   1
   8   0   0 5932.56 625.082   1
   8   0   1-32.6684 213.375   1
  -8   0  -1 162.285 319.966   1
  -8   0  -2 41102.3 2179.39   1
  -8   0  -3-172.012 312.845   1
   8   0   3 54.0364 241.183   1
   8   0   4 2281.06 591.162   1
  -8   0  -4 3678.07 774.078   1
  -8   0  -5-993.659 503.370   1
   8   0   5 3.67458 420.554   1
  -8  -1   3 4357.09 585.692   1
  -8  -1   2 292.274 252.023   1
   8   1  -1 541.727 256.260   1
  -8  -1   1 587.152 307.326   1
   8   1   0 564.315 315.329   1
  -8  -1   0 510.645 360.934   1
   8   1   1 5608.23 718.389   1
  -8  -1  -1 5592.79 849.221   1
  -8   1  -1 5726.85 714.498   1
  -8   1  -2 3818.05 648.687   1
   8  -1   2 3937.60 590.814   1
  -8  -1  -2 3840.50 687.955   1
   8   1   2 4020.99 632.326   1
   8  -1   3 12296.5 1071.11   1
   8   1   3 11049.1 1085.88   1
  -8  -1  -3 10919.4 1273.04   1
  -8  -1  -4 1087.55 529.407   1
   8  -1   4 1650.26 522.418   1
   8   1   4 1790.74 494.183   1
  -8   1  -4 3055.87 747.611   1
  -8  -1  -5 28698.0 2339.50   1
   8  -1   5 27843.7 1921.53   1
   8   1   5 27114.4 1917.29   1
  -8   1  -6 833.971 562.231   1
   8  -1   6 1611.14 609.241   1
  -8  -2   5 28012.6 1341.47   1
  -8  -2   4 10706.0 833.627   1
  -8  -2   3 35074.5 1609.07   1
   8   2  -2 417.187 196.927   1
  -8  -2   2 111.889 255.543   1
  -8  -2   1 61883.6 2341.40   1
   8   2  -1 62305.2 1976.99   1
  -8  -2   0 2095.89 535.654   1
   8   2   0 3010.09 473.521   1
  -8  -2  -1 44734.4 2320.57   1
   8   2   1 48795.8 2010.14   1
  -8  -2  -2 2143.88 719.160   1
   8   2   2 1941.41 539.590   1
  -8  -2  -3 17476.1 1763.18   1
   8   2   3 16354.8 1534.54   1
  -8   2  -3 21994.4 1620.47   1
   8   2   4 682.900 526.792   1
   8  -2   4 27.0167 293.622   1
   8  -2   5 13353.4 1267.79   1
  -8   2  -5 15054.8 1488.70   1
   8  -2   6-176.811 466.466   1
  -8   2  -6 265.770 474.820   1
  -8  -3   4 11476.2 966.331   1
   8   3  -3 1142.61 257.432   1
  -8  -3   3 926.303 253.120   1
  -8  -3   2 568.754 333.150   1
   8   3  -2 930.607 285.443   1
   8   3  -1 6647.42 718.395   1
  -8  -3   1 6646.15 875.491   1
  -8  -3   0 572.801 446.368   1
   8   3   0 736.686 293.851   1
   8   3   1 662.651 394.634   1
  -8  -3  -1 253.756 376.614   1
   8   3   2 2054.74 607.237   1
  -8   3  -5 134.426 403.892   1
   8   4  -3 4240.10 469.925   1
   8   4  -2 15118.5 952.211   1
   8   4  -1 11907.8 976.524   1
   8   4   0 43962.8 2033.12   1
   8   5  -4-205.368 199.696   1
   8   5  -3 19.1531 192.919   1
   8   5  -2 882.137 365.613   1
  -9   0   0 2059.97 502.546   1
   9   0   1-203.267 377.887   1
  -9   0  -1-211.193 395.112   1
   9   0   2 13758.9 1176.12   1
  -9   0  -2 15004.7 1459.65   1
  -9   0  -3-301.977 376.315   1
   9   0   3 168.225 428.620   1
   9   0   4 8191.19 1049.70   1
  -9   0  -4 9461.85 1297.05   1
  -9  -1   2 1978.92 484.540   1
   9   1  -1 81321.2 2483.99   1
  -9  -1   1 81600.1 2887.34   1
   9   1   0 55000.2 2118.91   1
  -9  -1   0 56638.5 2523.56   1
   9   1   1 81426.5 2723.79   1
  -9   1  -1 73999.7 3035.65   1
  -9  -1  -1 80237.9 3190.09   1
   9  -1   2 1227.75 354.946   1
  -9   1  -2 1632.19 519.263   1
  -9  -1  -2 1016.20 513.066   1
   9   1   2 1438.14 513.499   1
  -9  -1  -3 51958.2 2942.64   1
   9  -1   3 52932.0 2417.35   1
   9   1   3 51215.6 2426.97   1
  -9   1  -3 57480.3 2822.01   1
  -9  -1  -4 27169.3 2284.57   1
   9  -1   4 32382.8 1937.25   1
   9   1   4 28490.4 1958.59   1
  -9  -2   4 27716.2 1487.49   1
  -9  -2   3 5250.06 649.008   1
  -9  -2   2-335.508 505.110   1
  -9  -2   1 433.022 327.110   1
   9   2  -1 171.575 218.158   1
  -9  -2   0 6973.90 950.612   1
   9   2   0 8319.57 860.732   1
   9   2   1 1445.52 446.497   1
  -9  -2  -1 810.707 413.251   1
  -9  -2  -2 1816.64 613.257   1
   9   2   2 1640.21 448.740   1
  -9   2  -3 4103.51 851.923   1
   9   2   3 4345.51 806.177   1
  -9  -2  -3 4315.12 1032.38   1
   9  -2   4 228.528 351.625   1
  -9   2  -4 1256.31 660.538   1
   9   2   4 1095.84 584.927   1
  -9  -3   4 1510.81 499.013   1
  -9  -3   3 3691.71 651.150   1
  -9  -3   2 31316.5 1912.15   1
   9   3  -2 36668.7 1515.64   1
   9   3  -1 2079.56 404.455   1
  -9  -3   1 1688.70 479.124   1
  -9  -3   0 556.250 457.821   1
   9   3   0 1005.19 388.832   1
  -9  -3  -1 1848.40 706.970   1
   9   3   1 2091.56 569.419   1
   9   3   2 31669.3 1952.32   1
   9   4  -3 4230.77 528.510   1
   9   4  -2 52219.2 1827.99   1
   9   4  -1 1420.65 329.191   1
   9   4   0 1477.12 379.106   1
   9   5  -3 11767.2 799.503   1
   9   5  -2 30411.9 1535.74   1
 -10   0   0 4163.08 863.273   1
  10   0   1-228.197 365.711   1
 -10   0  -1 177.995 411.247   1
  10   0   2 37119.3 2012.66   1
 -10   0  -2 37045.2 2448.47   1
 -10  -1   2 4007.90 696.618   1
 -10  -1   1-10.1725 378.984   1
  10   1   0 583.859 305.317   1
 -10  -1   0 776.641 505.327   1
  10   1   1 1583.55 497.995   1
 -10  -1  -1 1126.66 600.931   1
 -10   1  -2 242.449 370.473   1
 -10  -1  -2 1038.30 645.674   1
  10   1   2 614.507 423.881   1
 -10  -2   4-128.313 371.025   1
 -10  -2   3 41817.6 2082.87   1
 -10  -2   2 5331.02 817.442   1
 -10  -2   1 56407.1 2612.61   1
  10   2  -1 56593.8 2142.47   1
  10   2   0-101.804 264.312   1
 -10  -2   0-66.4705 444.547   1
 -10  -2  -1 36250.5 2507.00   1
  10   2   1 34667.4 2018.58   1
 -10  -2  -2 1557.92 633.808   1
  10   2   2 3405.71 811.965   1
 -10  -3   4-652.838 506.550   1
 -10  -3   3-203.960 348.025   1
  10   3  -2 1306.05 306.059   1
 -10  -3   2 752.530 389.881   1
 -10  -3   1 1524.44 534.450   1
  10   3  -1 2210.35 509.949   1
 -10  -3   0 286.347 574.875   1
  10   3   0 735.558 382.243   1
 -10  -3  -1 408.340 611.983   1
  10   3   1-165.159 312.086   1
 -10  -3  -2 1746.64 697.618   1
  10   3   2 4115.64 755.091   1
  10   4  -3 8749.18 729.815   1
  10   4  -2 25833.8 1429.19   1
  10   4  -1 4505.19 569.339   1
  10   4   0 49222.6 2240.19   1
  10   4   1 3968.50 779.292   1
  10   5  -3 58.8812 218.175   1
  10   5  -2 447.541 236.628   1
  10   5  -1 97.9593 349.860   1
 -11   0   0 3298.67 768.536   1
 -11  -1   1 22836.4 1774.14   1
  11   1   0 4244.95 615.535   1
 -11  -1   0 3327.77 649.124   1
 -11  -1  -1 2215.91 589.028   1
  11   1   1 3435.90 713.427   1
 -11  -2   3 1368.35 546.675   1
 -11  -2   2 42.7204 577.492   1
  11   2  -1-398.072 408.290   1
 -11  -2   1 556.269 568.550   1
  11   2   0 549.425 365.198   1
 -11  -2   0 1562.85 814.226   1
  11   2   1 2541.74 624.432   1
 -11  -2  -1 2726.85 994.432   1
 -11  -3   3 2449.16 794.628   1
 -11  -3   2 8156.51 1212.68   1
  11   3  -2 9686.23 895.284   1
  11   3  -1 10700.2 971.834   1
 -11  -3   1 7654.80 1235.64   1
  11   3   0 29038.6 1742.88   1
 -11  -3   0 21620.6 2009.75   1
  11   4  -2 608.523 246.699   1
  11   4  -1 1029.90 276.103   1
  11   4   0-352.863 462.012   1
  11   5  -3 11042.1 865.836   1
  11   5  -2-380.350 335.825   1
  11   5  -1 16337.3 1306.59   1
 -12  -2   2 11196.3 1317.69   1
 -12  -2   1 2349.80 870.619   1
 -12  -3   3 1959.41 657.122   1
 -12  -3   2 9340.31 1463.88   1
  12   3  -1 4959.65 711.163   1
 -12  -3   1 2038.02 648.256   1
  12   4  -2 15460.0 1187.74   1
  12   5  -2 282.784 336.366   1
   0   0   0    0.00    0.00   0

TITL slav_p09_s2 in P2(1)/c
REM P2(1)/c (#14 in standard setting)
CELL 0.41106   8.776701   8.563545   6.541668  90.0000  90.5013  90.0000
ZERR    2.00   0.000453   0.003539   0.000540   0.0000   0.0055   0.0000
LATT  1
SYMM -x, y+1/2,-z+1/2
SFAC C H N O
UNIT 22.00 20.00 2.00 2.00
TREF
HKLF 4
END
;
_shelx_hkl_checksum              54886
loop_
_space_group_symop_operation_xyz
'x, y, z'
'-x, y+1/2, -z+1/2'
'-x, -y, -z'
'x, -y-1/2, z-1/2'
loop_
_atom_site_label
_atom_site_type_symbol
_atom_site_fract_x
_atom_site_fract_y
_atom_site_fract_z
_atom_site_U_iso_or_equiv
_atom_site_adp_type
_atom_site_occupancy
_atom_site_site_symmetry_order
_atom_site_calc_flag
_atom_site_refinement_flags_posn
_atom_site_refinement_flags_adp
_atom_site_refinement_flags_occupancy
_atom_site_disorder_assembly
_atom_site_disorder_group
Sr1 Sr 0.75158(12) 0.6137(3) 0.2691(3) 0.0237(13) Uani 1 1 d . . . . .
Si1 Si 0.5851(4) 0.5455(15) 0.7805(8) 0.032(4) Uani 1 1 d . . . . .
Si2 Si 1.0747(4) 0.7264(12) 0.5187(8) 0.033(4) Uani 1 1 d . . . . .
Al1 Al 0.9111(5) 0.5278(13) 0.8138(8) 0.0158(11) Uiso 1 1 d . . . . .
Al2 Al 0.4060(5) 0.7680(14) 1.0136(9) 0.030(4) Uani 1 1 d . . . . .
O1 O 0.7380(10) 0.617(2) 0.8944(18) 0.011(2) Uiso 1 1 d . . . . .
O2 O 0.9423(11) 0.342(3) 0.7297(19) 0.016(2) Uiso 1 1 d . . . . .
O3 O 1.0838(11) 0.908(3) 0.4275(18) 0.016(3) Uiso 1 1 d . . . . .
O4 O 0.4254(11) 0.591(3) 0.8849(19) 0.017(3) Uiso 1 1 d . . . . .
O5 O 0.5831(11) 0.637(3) 0.5701(19) 0.015(3) Uiso 1 1 d . . . . .
O6 O 1.2341(11) 0.644(3) 0.5703(18) 0.015(3) Uiso 1 1 d . . . . .
O7 O 0.9163(10) 0.637(3) 0.5875(18) 0.014(2) Uiso 1 1 d . . . . .
O8 O 0.5879(13) 0.360(3) 0.748(2) 0.024(3) Uiso 1 1 d . . . . .
loop_
_atom_site_aniso_label
_atom_site_aniso_U_11
_atom_site_aniso_U_22
_atom_site_aniso_U_33
_atom_site_aniso_U_23
_atom_site_aniso_U_13
_atom_site_aniso_U_12
Sr1 0.0096(7) 0.037(4) 0.0247(11) -0.0026(9) 0.0015(6) -0.0010(7)
Si1 0.0091(18) 0.065(13) 0.022(3) 0.000(3) 0.0002(19) 0.002(3)
Si2 0.0056(16) 0.077(13) 0.015(3) -0.004(3) 0.0048(18) 0.003(2)
Al2 0.0076(18) 0.060(15) 0.022(4) -0.001(4) 0.003(2) 0.002(3)
loop_
_atom_type_symbol
_atom_type_description
_atom_type_scat_dispersion_real
_atom_type_scat_dispersion_imag
_atom_type_scat_source
O O 0.0017 0.0018 'International Tables Vol C Tables 4.2.6.8 and 6.1.1.4'
Al Al 0.0192 0.0163 'International Tables Vol C Tables 4.2.6.8 and 6.1.1.4'
Si Si 0.0265 0.0226 'International Tables Vol C Tables 4.2.6.8 and 6.1.1.4'
Sr Sr 0.2429 1.2951 'International Tables Vol C Tables 4.2.6.8 and 6.1.1.4'
loop_
_geom_angle_atom_site_label_1
_geom_angle_atom_site_label_2
_geom_angle_atom_site_label_3
_geom_angle
_geom_angle_site_symmetry_1
_geom_angle_site_symmetry_3
_geom_angle_publ_flag
O6 Sr1 O1 135.0(5) 3_766 4_575 ?
O6 Sr1 O1 116.2(6) 3_766 1_554 ?
O1 Sr1 O1 108.7(4) 4_575 1_554 ?
O6 Sr1 O5 76.2(6) 3_766 . ?
O1 Sr1 O5 68.1(6) 4_575 . ?
O1 Sr1 O5 140.2(3) 1_554 . ?
O6 Sr1 O7 72.1(6) 3_766 . ?
O1 Sr1 O7 71.3(5) 4_575 . ?
O1 Sr1 O7 147.5(4) 1_554 . ?
O5 Sr1 O7 71.4(3) . . ?
O6 Sr1 O4 65.0(5) 3_766 3_666 ?
O1 Sr1 O4 138.5(5) 4_575 3_666 ?
O1 Sr1 O4 65.7(5) 1_554 3_666 ?
O5 Sr1 O4 90.2(5) . 3_666 ?
O7 Sr1 O4 136.3(7) . 3_666 ?
O6 Sr1 O3 65.1(5) 3_766 2_745 ?
O1 Sr1 O3 145.5(5) 4_575 2_745 ?
O1 Sr1 O3 62.6(5) 1_554 2_745 ?
O5 Sr1 O3 141.1(7) . 2_745 ?
O7 Sr1 O3 98.3(4) . 2_745 ?
O4 Sr1 O3 71.4(5) 3_666 2_745 ?
O6 Sr1 O2 94.5(5) 3_766 3_766 ?
O1 Sr1 O2 85.3(5) 4_575 3_766 ?
O1 Sr1 O2 92.3(3) 1_554 3_766 ?
O5 Sr1 O2 125.7(4) . 3_766 ?
O7 Sr1 O2 55.1(4) . 3_766 ?
O4 Sr1 O2 134.3(6) 3_666 3_766 ?
O3 Sr1 O2 62.9(6) 2_745 3_766 ?
O6 Sr1 O7 146.3(4) 3_766 4_575 ?
O1 Sr1 O7 57.3(4) 4_575 4_575 ?
O1 Sr1 O7 66.0(5) 1_554 4_575 ?
O5 Sr1 O7 125.4(6) . 4_575 ?
O7 Sr1 O7 89.7(4) . 4_575 ?
O4 Sr1 O7 131.5(5) 3_666 4_575 ?
O3 Sr1 O7 90.8(6) 2_745 4_575 ?
O2 Sr1 O7 52.4(5) 3_766 4_575 ?
O6 Sr1 O5 151.8(4) 3_766 4_575 ?
O1 Sr1 O5 55.3(4) 4_575 4_575 ?
O1 Sr1 O5 61.5(5) 1_554 4_575 ?
O5 Sr1 O5 89.5(4) . 4_575 ?
O7 Sr1 O5 126.6(6) . 4_575 ?
O4 Sr1 O5 91.2(6) 3_666 4_575 ?
O3 Sr1 O5 123.7(4) 2_745 4_575 ?
O2 Sr1 O5 113.5(6) 3_766 4_575 ?
O7 Sr1 O5 61.2(4) 4_575 4_575 ?
O6 Sr1 O8 97.6(6) 3_766 3_666 ?
O1 Sr1 O8 83.7(6) 4_575 3_666 ?
O1 Sr1 O8 85.5(4) 1_554 3_666 ?
O5 Sr1 O8 54.8(3) . 3_666 ?
O7 Sr1 O8 125.9(4) . 3_666 ?
O4 Sr1 O8 55.3(6) 3_666 3_666 ?
O3 Sr1 O8 125.8(5) 2_745 3_666 ?
O2 Sr1 O8 167.5(8) 3_766 3_666 ?
O7 Sr1 O8 116.0(6) 4_575 3_666 ?
O5 Sr1 O8 54.8(6) 4_575 3_666 ?
O6 Sr1 Al1 72.1(3) 3_766 3_766 ?
O1 Sr1 Al1 117.0(3) 4_575 3_766 ?
O1 Sr1 Al1 82.8(3) 1_554 3_766 ?
O5 Sr1 Al1 135.5(3) . 3_766 ?
O7 Sr1 Al1 69.7(3) . 3_766 ?
O4 Sr1 Al1 103.4(4) 3_666 3_766 ?
O3 Sr1 Al1 32.9(3) 2_745 3_766 ?
O2 Sr1 Al1 31.7(5) 3_766 3_766 ?
O7 Sr1 Al1 75.1(4) 4_575 3_766 ?
O5 Sr1 Al1 131.4(3) 4_575 3_766 ?
O8 Sr1 Al1 158.6(5) 3_666 3_766 ?
O5 Si1 O8 112.1(10) . . ?
O5 Si1 O4 104.3(9) . . ?
O8 Si1 O4 108.0(12) . . ?
O5 Si1 O1 102.2(9) . . ?
O8 Si1 O1 114.5(9) . . ?
O4 Si1 O1 115.3(9) . . ?
O5 Si1 Al2 35.3(5) . 4_575 ?
O8 Si1 Al2 119.1(6) . 4_575 ?
O4 Si1 Al2 69.3(7) . 4_575 ?
O1 Si1 Al2 120.9(9) . 4_575 ?
O5 Si1 Al1 95.5(4) . . ?
O8 Si1 Al1 86.6(5) . . ?
O4 Si1 Al1 148.2(5) . . ?
O1 Si1 Al1 34.8(6) . . ?
Al2 Si1 Al1 128.6(4) 4_575 . ?
O5 Si1 Al2 97.4(9) . . ?
O8 Si1 Al2 136.6(6) . . ?
O4 Si1 Al2 31.2(9) . . ?
O1 Si1 Al2 87.7(7) . . ?
Al2 Si1 Al2 69.8(2) 4_575 . ?
Al1 Si1 Al2 122.5(3) . . ?
O5 Si1 Sr1 62.5(8) . 4_576 ?
O8 Si1 Sr1 151.1(5) . 4_576 ?
O4 Si1 Sr1 100.7(10) . 4_576 ?
O1 Si1 Sr1 46.7(7) . 4_576 ?
Al2 Si1 Sr1 74.2(3) 4_575 4_576 ?
Al1 Si1 Sr1 66.6(3) . 4_576 ?
Al2 Si1 Sr1 70.8(3) . 4_576 ?
O5 Si1 Sr1 96.7(5) . 3_666 ?
O8 Si1 Sr1 65.7(5) . 3_666 ?
O4 Si1 Sr1 49.7(8) . 3_666 ?
O1 Si1 Sr1 158.8(5) . 3_666 ?
Al2 Si1 Sr1 71.18(19) 4_575 3_666 ?
Al1 Si1 Sr1 152.3(5) . 3_666 ?
Al2 Si1 Sr1 80.39(18) . 3_666 ?
Sr1 Si1 Sr1 140.8(3) 4_576 3_666 ?
O5 Si1 Sr1 134.6(9) . 1_556 ?
O8 Si1 Sr1 106.0(6) . 1_556 ?
O4 Si1 Sr1 86.1(5) . 1_556 ?
O1 Si1 Sr1 37.3(4) . 1_556 ?
Al2 Si1 Sr1 133.2(4) 4_575 1_556 ?
Al1 Si1 Sr1 62.52(14) . 1_556 ?
Al2 Si1 Sr1 68.94(18) . 1_556 ?
Sr1 Si1 Sr1 72.12(18) 4_576 1_556 ?
Sr1 Si1 Sr1 121.50(17) 3_666 1_556 ?
O5 Si1 Sr1 30.6(6) . . ?
O8 Si1 Sr1 91.7(6) . . ?
O4 Si1 Sr1 134.1(7) . . ?
O1 Si1 Sr1 91.4(5) . . ?
Al2 Si1 Sr1 64.91(18) 4_575 . ?
Al1 Si1 Sr1 71.13(15) . . ?
Al2 Si1 Sr1 126.0(4) . . ?
Sr1 Si1 Sr1 70.05(17) 4_576 . ?
Sr1 Si1 Sr1 109.83(15) 3_666 . ?
Sr1 Si1 Sr1 128.60(17) 1_556 . ?
O6 Si2 O7 118.4(11) . . ?
O6 Si2 O3 116.2(8) . . ?
O7 Si2 O3 124.9(8) . . ?
O6 Si2 O2 96.7(8) . 3_766 ?
O7 Si2 O2 91.9(8) . 3_766 ?
O3 Si2 O2 89.1(10) . 3_766 ?
O6 Si2 O2 96.9(7) . 2_756 ?
O7 Si2 O2 86.2(8) . 2_756 ?
O3 Si2 O2 80.2(9) . 2_756 ?
O2 Si2 O2 165.4(7) 3_766 2_756 ?
O6 Si2 Al1 106.6(8) . 2_756 ?
O7 Si2 Al1 110.7(7) . 2_756 ?
O3 Si2 Al1 43.9(6) . 2_756 ?
O2 Si2 Al1 132.9(10) 3_766 2_756 ?
O2 Si2 Al1 36.6(7) 2_756 2_756 ?
O6 Si2 Al1 148.6(7) . 4_575 ?
O7 Si2 Al1 92.7(6) . 4_575 ?
O3 Si2 Al1 34.5(4) . 4_575 ?
O2 Si2 Al1 76.8(8) 3_766 4_575 ?
O2 Si2 Al1 88.8(6) 2_756 4_575 ?
Al1 Si2 Al1 61.9(3) 2_756 4_575 ?
O6 Si2 Al2 30.4(7) . 4_675 ?
O7 Si2 Al2 148.7(8) . 4_675 ?
O3 Si2 Al2 86.0(5) . 4_675 ?
O2 Si2 Al2 94.2(4) 3_766 4_675 ?
O2 Si2 Al2 94.9(4) 2_756 4_675 ?
Al1 Si2 Al2 87.0(3) 2_756 4_675 ?
Al1 Si2 Al2 118.6(4) 4_575 4_675 ?
O6 Si2 Sr1 134.5(8) . . ?
O7 Si2 Sr1 45.5(4) . . ?
O3 Si2 Sr1 97.8(4) . . ?
O2 Si2 Sr1 52.3(4) 3_766 . ?
O2 Si2 Sr1 119.0(3) 2_756 . ?
Al1 Si2 Sr1 118.9(3) 2_756 . ?
Al1 Si2 Sr1 64.71(18) 4_575 . ?
Al2 Si2 Sr1 146.0(3) 4_675 . ?
O6 Si2 Sr1 140.4(5) . 4_576 ?
O7 Si2 Sr1 51.5(7) . 4_576 ?
O3 Si2 Sr1 81.2(5) . 4_576 ?
O2 Si2 Sr1 119.9(4) 3_766 4_576 ?
O2 Si2 Sr1 48.8(3) 2_756 4_576 ?
Al1 Si2 Sr1 59.96(18) 2_756 4_576 ?
Al1 Si2 Sr1 62.36(17) 4_575 4_576 ?
Al2 Si2 Sr1 143.0(3) 4_675 4_576 ?
Sr1 Si2 Sr1 70.48(9) . 4_576 ?
O6 Si2 Sr1 35.7(7) . 3_766 ?
O7 Si2 Sr1 82.8(7) . 3_766 ?
O3 Si2 Sr1 151.6(4) . 3_766 ?
O2 Si2 Sr1 97.0(9) 3_766 3_766 ?
O2 Si2 Sr1 97.1(6) 2_756 3_766 ?
Al1 Si2 Sr1 125.6(2) 2_756 3_766 ?
Al1 Si2 Sr1 172.3(3) 4_575 3_766 ?
Al2 Si2 Sr1 66.0(3) 4_675 3_766 ?
Sr1 Si2 Sr1 107.9(3) . 3_766 ?
Sr1 Si2 Sr1 118.35(18) 4_576 3_766 ?
O2 Al1 O7 102.7(9) . . ?
O2 Al1 O3 106.6(8) . 4_576 ?
O7 Al1 O3 99.3(8) . 4_576 ?
O2 Al1 O1 129.4(8) . . ?
O7 Al1 O1 92.8(7) . . ?
O3 Al1 O1 118.1(8) 4_576 . ?
O2 Al1 O3 78.0(9) . 2_746 ?
O7 Al1 O3 177.0(6) . 2_746 ?
O3 Al1 O3 77.7(9) 4_576 2_746 ?
O1 Al1 O3 88.9(7) . 2_746 ?
O2 Al1 Si2 42.4(6) . 2_746 ?
O7 Al1 Si2 145.1(8) . 2_746 ?
O3 Al1 Si2 94.9(8) 4_576 2_746 ?
O1 Al1 Si2 108.3(7) . 2_746 ?
O3 Al1 Si2 35.9(7) 2_746 2_746 ?
O2 Al1 Si1 100.8(5) . . ?
O7 Al1 Si1 86.6(4) . . ?
O3 Al1 Si1 149.9(7) 4_576 . ?
O1 Al1 Si1 31.7(5) . . ?
O3 Al1 Si1 96.1(4) 2_746 . ?
Si2 Al1 Si1 96.8(3) 2_746 . ?
O2 Al1 Si2 138.8(4) . 4_576 ?
O7 Al1 Si2 89.2(7) . 4_576 ?
O3 Al1 Si2 32.3(7) 4_576 4_576 ?
O1 Al1 Si2 88.3(6) . 4_576 ?
O3 Al1 Si2 88.4(6) 2_746 4_576 ?
Si2 Al1 Si2 118.1(3) 2_746 4_576 ?
Si1 Al1 Si2 119.3(4) . 4_576 ?
O2 Al1 Al1 91.8(6) . 3_767 ?
O7 Al1 Al1 140.7(6) . 3_767 ?
O3 Al1 Al1 41.4(6) 4_576 3_767 ?
O1 Al1 Al1 105.9(5) . 3_767 ?
O3 Al1 Al1 36.3(4) 2_746 3_767 ?
Si2 Al1 Al1 60.2(4) 2_746 3_767 ?
Si1 Al1 Al1 126.6(3) . 3_767 ?
Si2 Al1 Al1 57.9(3) 4_576 3_767 ?
O2 Al1 Sr1 56.6(4) . 3_766 ?
O7 Al1 Sr1 91.6(5) . 3_766 ?
O3 Al1 Sr1 53.6(6) 4_576 3_766 ?
O1 Al1 Sr1 171.3(5) . 3_766 ?
O3 Al1 Sr1 86.4(5) 2_746 3_766 ?
Si2 Al1 Sr1 71.6(2) 2_746 3_766 ?
Si1 Al1 Sr1 156.3(4) . 3_766 ?
Si2 Al1 Sr1 84.19(17) 4_576 3_766 ?
Al1 Al1 Sr1 66.3(2) 3_767 3_766 ?
O2 Al1 Sr1 123.7(6) . 1_556 ?
O7 Al1 Sr1 129.9(8) . 1_556 ?
O3 Al1 Sr1 85.5(4) 4_576 1_556 ?
O1 Al1 Sr1 44.5(4) . 1_556 ?
O3 Al1 Sr1 50.6(6) 2_746 1_556 ?
Si2 Al1 Sr1 82.7(2) 2_746 1_556 ?
Si1 Al1 Sr1 68.62(16) . 1_556 ?
Si2 Al1 Sr1 68.84(18) 4_576 1_556 ?
Al1 Al1 Sr1 61.5(2) 3_767 1_556 ?
Sr1 Al1 Sr1 127.80(15) 3_766 1_556 ?
O2 Al1 Sr1 152.2(5) . 4_576 ?
O7 Al1 Sr1 57.1(7) . 4_576 ?
O3 Al1 Sr1 96.2(8) 4_576 4_576 ?
O1 Al1 Sr1 44.3(6) . 4_576 ?
O3 Al1 Sr1 123.3(7) 2_746 4_576 ?
Si2 Al1 Sr1 152.2(2) 2_746 4_576 ?
Si1 Al1 Sr1 62.3(3) . 4_576 ?
Si2 Al1 Sr1 65.2(3) 4_576 4_576 ?
Al1 Al1 Sr1 115.9(5) 3_767 4_576 ?
Sr1 Al1 Sr1 134.5(3) 3_766 4_576 ?
Sr1 Al1 Sr1 72.83(18) 1_556 4_576 ?
O6 Al2 O4 124.8(8) 4_476 . ?
O6 Al2 O5 121.1(11) 4_476 4_576 ?
O4 Al2 O5 114.0(8) . 4_576 ?
O6 Al2 O8 92.6(8) 4_476 2_656 ?
O4 Al2 O8 85.5(10) . 2_656 ?
O5 Al2 O8 88.1(8) 4_576 2_656 ?
O6 Al2 O8 95.3(8) 4_476 3_667 ?
O4 Al2 O8 83.8(11) . 3_667 ?
O5 Al2 O8 94.3(8) 4_576 3_667 ?
O8 Al2 O8 169.1(8) 2_656 3_667 ?
O6 Al2 Si1 95.9(7) 4_476 4_576 ?
O4 Al2 Si1 137.1(5) . 4_576 ?
O5 Al2 Si1 30.7(5) 4_576 4_576 ?
O8 Al2 Si1 107.7(8) 2_656 4_576 ?
O8 Al2 Si1 79.0(7) 3_667 4_576 ?
O6 Al2 Si2 27.9(6) 4_476 4_476 ?
O4 Al2 Si2 97.0(5) . 4_476 ?
O5 Al2 Si2 148.9(8) 4_576 4_476 ?
O8 Al2 Si2 92.3(4) 2_656 4_476 ?
O8 Al2 Si2 91.2(5) 3_667 4_476 ?
Si1 Al2 Si2 122.2(4) 4_576 4_476 ?
O6 Al2 Si1 150.9(6) 4_476 . ?
O4 Al2 Si1 28.6(5) . . ?
O5 Al2 Si1 86.2(6) 4_576 . ?
O8 Al2 Si1 77.2(7) 2_656 . ?
O8 Al2 Si1 92.3(7) 3_667 . ?
Si1 Al2 Si1 113.1(3) 4_576 . ?
Si2 Al2 Si1 124.2(4) 4_476 . ?
O6 Al2 Sr1 38.0(7) 4_476 2_656 ?
O4 Al2 Sr1 162.5(4) . 2_656 ?
O5 Al2 Sr1 83.1(7) 4_576 2_656 ?
O8 Al2 Sr1 91.7(9) 2_656 2_656 ?
O8 Al2 Sr1 99.2(8) 3_667 2_656 ?
Si1 Al2 Sr1 60.1(3) 4_576 2_656 ?
Si2 Al2 Sr1 65.8(2) 4_476 2_656 ?
Si1 Al2 Sr1 164.8(4) . 2_656 ?
O6 Al2 Sr1 135.7(8) 4_476 4_576 ?
O4 Al2 Sr1 86.8(6) . 4_576 ?
O5 Al2 Sr1 39.4(4) 4_576 4_576 ?
O8 Al2 Sr1 56.4(4) 2_656 4_576 ?
O8 Al2 Sr1 120.6(4) 3_667 4_576 ?
Si1 Al2 Sr1 69.44(17) 4_576 4_576 ?
Si2 Al2 Sr1 148.2(3) 4_476 4_576 ?
Si1 Al2 Sr1 59.2(2) . 4_576 ?
Sr1 Al2 Sr1 106.0(3) 2_656 4_576 ?
O6 Al2 Sr1 140.6(5) 4_476 1_556 ?
O4 Al2 Sr1 79.9(5) . 1_556 ?
O5 Al2 Sr1 50.3(7) 4_576 1_556 ?
O8 Al2 Sr1 122.1(4) 2_656 1_556 ?
O8 Al2 Sr1 53.7(4) 3_667 1_556 ?
Si1 Al2 Sr1 58.3(2) 4_576 1_556 ?
Si2 Al2 Sr1 144.8(3) 4_476 1_556 ?
Si1 Al2 Sr1 63.75(16) . 1_556 ?
Sr1 Al2 Sr1 115.86(19) 2_656 1_556 ?
Sr1 Al2 Sr1 66.98(9) 4_576 1_556 ?
Si1 O1 Al1 113.5(10) . . ?
Si1 O1 Sr1 103.9(7) . 4_576 ?
Al1 O1 Sr1 105.1(7) . 4_576 ?
Si1 O1 Sr1 118.7(7) . 1_556 ?
Al1 O1 Sr1 104.8(5) . 1_556 ?
Sr1 O1 Sr1 110.1(7) 4_576 1_556 ?
Al1 O2 Si2 127.2(12) . 3_766 ?
Al1 O2 Si2 100.9(8) . 2_746 ?
Si2 O2 Si2 128.3(14) 3_766 2_746 ?
Al1 O2 Sr1 91.7(7) . 3_766 ?
Si2 O2 Sr1 97.3(5) 3_766 3_766 ?
Si2 O2 Sr1 98.8(4) 2_746 3_766 ?
Si2 O3 Al1 113.3(9) . 4_575 ?
Si2 O3 Al1 100.2(8) . 2_756 ?
Al1 O3 Al1 102.3(9) 4_575 2_756 ?
Si2 O3 Sr1 146.1(7) . 2_755 ?
Al1 O3 Sr1 93.4(8) 4_575 2_755 ?
Al1 O3 Sr1 93.7(9) 2_756 2_755 ?
Si1 O4 Al2 120.1(13) . . ?
Si1 O4 Sr1 101.4(10) . 3_666 ?
Al2 O4 Sr1 136.7(6) . 3_666 ?
Si1 O5 Al2 114.0(7) . 4_575 ?
Si1 O5 Sr1 130.4(10) . . ?
Al2 O5 Sr1 113.3(6) 4_575 . ?
Si1 O5 Sr1 88.4(7) . 4_576 ?
Al2 O5 Sr1 101.4(10) 4_575 4_576 ?
Sr1 O5 Sr1 96.4(5) . 4_576 ?
Si2 O6 Al2 121.8(13) . 4_675 ?
Si2 O6 Sr1 121.9(8) . 3_766 ?
Al2 O6 Sr1 116.3(7) 4_675 3_766 ?
Si2 O7 Al1 120.3(6) . . ?
Si2 O7 Sr1 106.8(6) . . ?
Al1 O7 Sr1 129.3(9) . . ?
Si2 O7 Sr1 101.5(10) . 4_576 ?
Al1 O7 Sr1 91.8(6) . 4_576 ?
Sr1 O7 Sr1 96.6(4) . 4_576 ?
Si1 O8 Al2 122.3(12) . 2_646 ?
Si1 O8 Al2 117.6(10) . 3_667 ?
Al2 O8 Al2 120.0(15) 2_646 3_667 ?
Si1 O8 Sr1 85.1(7) . 3_666 ?
Al2 O8 Sr1 91.9(5) 2_646 3_666 ?
Al2 O8 Sr1 95.4(6) 3_667 3_666 ?
loop_
_geom_bond_atom_site_label_1
_geom_bond_atom_site_label_2
_geom_bond_distance
_geom_bond_site_symmetry_2
_geom_bond_publ_flag
Sr1 O6 2.45(2) 3_766 ?
Sr1 O1 2.45(2) 4_575 ?
Sr1 O1 2.453(12) 1_554 ?
Sr1 O5 2.481(13) . ?
Sr1 O7 2.533(10) . ?
Sr1 O4 2.54(2) 3_666 ?
Sr1 O3 2.620(18) 2_745 ?
Sr1 O2 2.713(10) 3_766 ?
Sr1 O7 2.843(19) 4_575 ?
Sr1 O5 2.898(18) 4_575 ?
Sr1 O8 2.989(12) 3_666 ?
Sr1 Al1 3.248(6) 3_766 ?
Si1 O5 1.584(18) . ?
Si1 O8 1.60(3) . ?
Si1 O4 1.612(13) . ?
Si1 O1 1.648(12) . ?
Si1 Al2 2.832(12) 4_575 ?
Si1 Al1 2.872(6) . ?
Si1 Al2 2.910(12) . ?
Si2 O6 1.600(14) . ?
Si2 O7 1.652(14) . ?
Si2 O3 1.67(2) . ?
Si2 O2 1.732(16) 3_766 ?
Si2 O2 1.928(18) 2_756 ?
Si2 Al1 2.806(15) 2_756 ?
Si2 Al1 2.873(11) 4_575 ?
Si2 Al2 2.909(5) 4_675 ?
Al1 O2 1.71(3) . ?
Al1 O7 1.753(17) . ?
Al1 O3 1.769(12) 4_576 ?
Al1 O1 1.785(14) . ?
Al1 O3 1.977(19) 2_746 ?
Al1 Al1 2.920(10) 3_767 ?
Al2 O6 1.729(15) 4_476 ?
Al2 O4 1.75(3) . ?
Al2 O5 1.790(15) 4_576 ?
Al2 O8 1.89(2) 2_656 ?
Al2 O8 1.91(2) 3_667 ?
