#------------------------------------------------------------------------------
#$Date: 2021-07-04 04:49:46 +0300 (Sun, 04 Jul 2021) $
#$Revision: 266973 $
#$URL: file:///home/coder/svn-repositories/cod/cif/1/56/31/1563146.cif $
#------------------------------------------------------------------------------
#
# This file is available in the Crystallography Open Database (COD),
# http://www.crystallography.net/
#
# All data on this site have been placed in the public domain by the
# contributors.
#
data_1563146
loop_
_publ_author_name
'Gorelova, Liudmila A.'
'Pakhomova, Anna S.'
'Krzhizhanovskaya, Maria G.'
'Pankin, Dmitrii V.'
'Krivovichev, Sergey V.'
'Dubrovinsky, Leonid S.'
'Kasatkin, Anatoly V.'
_publ_section_title
;
 Crystal Structure Evolution of Slawsonite SrAl2Si2O8 and Paracelsian
 BaAl2Si2O8 upon Compression and Decompression
;
_journal_issue                   23
_journal_name_full               'The Journal of Physical Chemistry C'
_journal_page_first              13014
_journal_page_last               13023
_journal_paper_doi               10.1021/acs.jpcc.1c02949
_journal_volume                  125
_journal_year                    2021
_chemical_formula_sum            'Al2 O8 Si2 Sr'
_chemical_formula_weight         325.76
_space_group_crystal_system      monoclinic
_space_group_IT_number           14
_space_group_name_Hall           '-P 2ybc'
_space_group_name_H-M_alt        'P 1 21/c 1'
_audit_creation_method           SHELXL-2018/3
_cell_angle_alpha                90
_cell_angle_beta                 90.299(14)
_cell_angle_gamma                90
_cell_formula_units_Z            4
_cell_length_a                   8.3270(11)
_cell_length_b                   9.205(8)
_cell_length_c                   8.4719(14)
_cell_measurement_reflns_used    857
_cell_measurement_temperature    293(2)
_cell_measurement_theta_max      19.306
_cell_measurement_theta_min      2.830
_cell_volume                     649.4(6)
_computing_structure_refinement  'SHELXL-2018/3 (Sheldrick, 2018)'
_diffrn_ambient_temperature      293(2)
_diffrn_measured_fraction_theta_full 0.340
_diffrn_measured_fraction_theta_max 0.186
_diffrn_measurement_device_type
'esperanto-CrysAlisPro-abstract goniometer imported esperanto images'
_diffrn_radiation_type           synchrotron
_diffrn_radiation_wavelength     0.41106
_diffrn_reflns_av_R_equivalents  0.0849
_diffrn_reflns_av_unetI/netI     0.1317
_diffrn_reflns_Laue_measured_fraction_full 0.340
_diffrn_reflns_Laue_measured_fraction_max 0.186
_diffrn_reflns_limit_h_max       12
_diffrn_reflns_limit_h_min       -12
_diffrn_reflns_limit_k_max       6
_diffrn_reflns_limit_k_min       -4
_diffrn_reflns_limit_l_max       11
_diffrn_reflns_limit_l_min       -11
_diffrn_reflns_number            857
_diffrn_reflns_point_group_measured_fraction_full 0.340
_diffrn_reflns_point_group_measured_fraction_max 0.186
_diffrn_reflns_theta_full        14.279
_diffrn_reflns_theta_max         19.306
_diffrn_reflns_theta_min         2.830
_exptl_absorpt_coefficient_mu    2.094
_exptl_crystal_colour            colorless
_exptl_crystal_density_diffrn    3.332
_exptl_crystal_density_meas      ?
_exptl_crystal_density_method    none
_exptl_crystal_description       isosymmetric
_exptl_crystal_F_000             624
_exptl_crystal_size_max          0.010
_exptl_crystal_size_mid          0.010
_exptl_crystal_size_min          0.005
_refine_diff_density_max         0.995
_refine_diff_density_min         -1.117
_refine_diff_density_rms         0.203
_refine_ls_extinction_method     none
_refine_ls_goodness_of_fit_ref   1.052
_refine_ls_hydrogen_treatment    undef
_refine_ls_matrix_type           full
_refine_ls_number_parameters     78
_refine_ls_number_reflns         526
_refine_ls_number_restraints     0
_refine_ls_restrained_S_all      1.052
_refine_ls_R_factor_all          0.1248
_refine_ls_R_factor_gt           0.0830
_refine_ls_shift/su_max          0.000
_refine_ls_shift/su_mean         0.000
_refine_ls_structure_factor_coef Fsqd
_refine_ls_weighting_details
'w=1/[\s^2^(Fo^2^)+(0.1172P)^2^] where P=(Fo^2^+2Fc^2^)/3'
_refine_ls_weighting_scheme      calc
_refine_ls_wR_factor_gt          0.1989
_refine_ls_wR_factor_ref         0.2502
_reflns_Friedel_coverage         0.000
_reflns_number_gt                291
_reflns_number_total             526
_reflns_threshold_expression     'I > 2\s(I)'
_cod_data_source_file            slav_p04.cif
_cod_data_source_block           shelx
_cod_depositor_comments
;
The following automatic conversions were performed:

data item '_exptl_crystal_density_meas' value 'none' was changed to
'?' -- the value is perceived as not measured.

Automatic conversion script
Id: cif_fix_values 7556 2019-12-06 15:28:31Z antanas 

 Adding full bibliography for 1563145--1563156.cif.
;
_cod_original_sg_symbol_H-M      'P 21/c'
_cod_database_code               1563146
_shelx_shelxl_version_number     2018/3
_shelx_space_group_comment
;
The symmetry employed for this shelxl refinement is uniquely defined
by the following loop, which should always be used as a source of
symmetry information in preference to the above space-group names.
They are only intended as comments.
;
_shelx_res_file
;
TITL slav_p04_s1 in P2(1)/c
    shelx.res
    created by SHELXL-2018/3 at 13:20:21 on 19-Jan-2021
REM P2(1)/c (#14 in standard setting)
CELL 0.41106   8.326997   9.205214   8.471914  90.0000  90.2985  90.0000
ZERR    4.00   0.001050   0.007851   0.001420   0.0000   0.0141   0.0000
LATT  1
SYMM -x, y+1/2,-z+1/2
SFAC O Al Si Sr
DISP O 0.00165 0.00179 4.1539
DISP Si 0.026465 0.022605 52.36784
DISP Al 0.019188 0.016298 37.75624
DISP Sr 0.242892 1.295112 3000.317
UNIT 32.00 8.00 8.00 4.00

OMIT     5   3   2
OMIT    -8   6   4
OMIT     0   4   8
OMIT     0   2   8
OMIT    -3   2   1
OMIT   -10   2   3
OMIT     1   0   2

MERG   2
FMAP   2
PLAN   100
BOND
LIST   10
ACTA
REM DAMP 25000
L.S.  20
REM EXTI    0.000000
WGHT    0.117200
FVAR       1.86044
SR1   4    0.749719    0.407099    0.629793    11.00000    0.01599    0.02814 =
         0.04070   -0.00170   -0.00484    0.00061
SI1   3    0.563281    0.424027    0.250342    11.00000    0.01023    0.04334 =
         0.03230    0.00169   -0.00467   -0.00230
SI2   3    1.060930    0.301506    0.948915    11.00000    0.01382    0.03962 =
         0.03330    0.01027   -0.00386    0.00012
AL1   2    1.071210    0.570072    0.757182    11.00000    0.01416    0.03035 =
         0.03762   -0.00825   -0.00744   -0.00531
AL2   2    0.424410    0.201197    0.452336    11.00000    0.01587    0.02788 =
         0.04461   -0.00529   -0.00568    0.00232
O1    1    0.740558    0.413168    0.335915    11.00000    0.02925
O2    1    1.002840    0.392979    0.800917    11.00000    0.03257
O3    1    1.062457    0.133649    0.893701    11.00000    0.02887
O4    1    0.434136    0.379515    0.382858    11.00000    0.02808
O5    1    0.569965    0.315018    0.105524    11.00000    0.02957
O6    1    1.233008    0.340930    1.018255    11.00000    0.02621
O7    1    0.917813    0.320550    1.085704    11.00000    0.02840
O8    1    0.502116    0.578199    0.201032    11.00000    0.02085

HKLF 4




REM  slav_p04_s1 in P2(1)/c
REM wR2 = 0.2502, GooF = S = 1.052, Restrained GooF = 1.052 for all data
REM R1 = 0.0830 for 291 Fo > 4sig(Fo) and 0.1248 for all 526 data
REM 78 parameters refined using 0 restraints

END

WGHT      0.1183      0.0000

REM Highest difference peak  0.995,  deepest hole -1.117,  1-sigma level  0.203
Q1    1   0.6937  0.4084  0.5330  11.00000  0.05    0.78
Q2    1   0.8108  0.4070  0.7342  11.00000  0.05    0.71
Q3    1   0.6110  0.4219  0.3564  11.00000  0.05    0.67
Q4    1   0.7996  0.5131  0.6001  11.00000  0.05    0.65
Q5    1   0.6982  0.3011  0.6545  11.00000  0.05    0.65
Q6    1   0.9446  0.2893  1.1412  11.00000  0.05    0.65
Q7    1   0.8225  0.3922  0.5267  11.00000  0.05    0.63
Q8    1   0.3534  0.7109  0.2250  11.00000  0.05    0.62
Q9    1   0.6572  0.2516  0.2740  11.00000  0.05    0.60
Q10   1   0.9925  0.4249  0.8650  11.00000  0.05    0.58
Q11   1   0.5248  0.4961  0.1426  11.00000  0.05    0.58
Q12   1   0.8608  0.3900  0.3768  11.00000  0.05    0.58
Q13   1   0.7472  0.5829  0.2515  11.00000  0.05    0.58
Q14   1   0.8446  0.2647  1.1897  11.00000  0.05    0.57
Q15   1   0.8994  0.3635  0.6836  11.00000  0.05    0.57
Q16   1   0.7045  0.4965  0.6632  11.00000  0.05    0.56
Q17   1   0.8619  0.2253  0.9877  11.00000  0.05    0.56
Q18   1   0.5778  0.3640  0.5581  11.00000  0.05    0.55
Q19   1   1.1294  0.5206  0.8313  11.00000  0.05    0.55
Q20   1   0.7963  0.2964  0.6045  11.00000  0.05    0.55
Q21   1   1.1335  0.3122  0.8557  11.00000  0.05    0.55
Q22   1   0.4543  0.2410  0.2849  11.00000  0.05    0.55
Q23   1   0.8471  0.4174  0.4012  11.00000  0.05    0.54
Q24   1   0.9483  0.4571  1.0191  11.00000  0.05    0.54
Q25   1   0.9601  0.3365  0.8809  11.00000  0.05    0.54
Q26   1   0.3632  0.1796  0.3642  11.00000  0.05    0.52
Q27   1   0.9923  0.3718  0.9962  11.00000  0.05    0.52
Q28   1   1.1266  0.1026  0.7931  11.00000  0.05    0.51
Q29   1   1.1463  0.3273  1.1440  11.00000  0.05    0.50
Q30   1   0.4652  0.1051  0.4285  11.00000  0.05    0.48
Q31   1   1.2516  0.4138  0.9960  11.00000  0.05    0.48
Q32   1   0.9082  0.4213  0.9066  11.00000  0.05    0.47
Q33   1   1.1457  0.4183  1.0146  11.00000  0.05    0.47
Q34   1   1.0356  0.2337  0.9695  11.00000  0.05    0.47
Q35   1   0.5987  0.3991  0.0626  11.00000  0.05    0.46
Q36   1   1.2516  0.2923  0.8956  11.00000  0.05    0.46
Q37   1   0.8627  0.3825  1.0375  11.00000  0.05    0.46
Q38   1   0.8231  0.4753  1.0604  11.00000  0.05    0.45
Q39   1   1.1722  0.1074  0.9521  11.00000  0.05    0.45
Q40   1   0.4759  0.3967  0.2252  11.00000  0.05    0.44
Q41   1   0.4667  0.6612  0.1436  11.00000  0.05    0.43
Q42   1   1.1054  0.5854  0.8560  11.00000  0.05    0.43
Q43   1   0.4749  0.4282  0.3710  11.00000  0.05    0.42
Q44   1   0.3225  0.3268  0.5376  11.00000  0.05    0.42
Q45   1   1.1408  0.0167  1.0104  11.00000  0.05    0.42
Q46   1   0.5230  0.1944  0.3716  11.00000  0.05    0.41
Q47   1   0.6757  0.3826  0.7277  11.00000  0.05    0.41
Q48   1   1.0917  0.1100  1.0475  11.00000  0.05    0.41
Q49   1   0.6797  0.3465 -0.0222  11.00000  0.05    0.41
Q50   1   0.4748  0.4338  0.0569  11.00000  0.05    0.40
Q51   1   1.3066  0.4194  0.8766  11.00000  0.05    0.40
Q52   1   0.8107  0.2886  0.3917  11.00000  0.05    0.40
Q53   1   0.3612  0.4168  0.5028  11.00000  0.05    0.40
Q54   1   0.3157  0.4097  0.4084  11.00000  0.05    0.40
Q55   1   1.1999  0.4048  0.8826  11.00000  0.05    0.39
Q56   1   0.3481  0.4601  0.4287  11.00000  0.05    0.39
Q57   1   0.8002  0.3387  0.4189  11.00000  0.05    0.39
Q58   1   1.1071  0.3013  0.7526  11.00000  0.05    0.38
Q59   1   0.9555  0.2742  1.0353  11.00000  0.05    0.38
Q60   1   0.7885  0.4137  1.0684  11.00000  0.05    0.38
Q61   1   1.0548  0.0781  0.8891  11.00000  0.05    0.38
Q62   1   1.1205  0.6993  0.7082  11.00000  0.05    0.37
Q63   1   0.7677  0.5349  0.5176  11.00000  0.05    0.36
Q64   1   1.0794  0.1961  0.8125  11.00000  0.05    0.36
Q65   1   0.3474  0.3926  0.2871  11.00000  0.05    0.36
Q66   1   0.5814  0.4306  0.0756  11.00000  0.05    0.36
Q67   1   0.6295  0.2753  0.0052  11.00000  0.05    0.36
Q68   1   0.5030  0.3621  0.0263  11.00000  0.05    0.36
Q69   1   0.7491  0.2872  0.5209  11.00000  0.05    0.36
Q70   1   0.6914  0.5842  0.3683  11.00000  0.05    0.35
Q71   1   0.7360  0.2846  0.7482  11.00000  0.05    0.35
Q72   1   0.3536  0.3522  0.5967  11.00000  0.05    0.35
Q73   1   1.3020  0.3203  1.1167  11.00000  0.05    0.34
Q74   1   0.6920  0.5047  0.4602  11.00000  0.05    0.34
Q75   1   0.6343  0.5923  0.2626  11.00000  0.05    0.34
Q76   1   1.3128  0.3737  1.0966  11.00000  0.05    0.34
Q77   1   0.9870  0.5611  0.8329  11.00000  0.05    0.33
Q78   1   0.2652  0.3109  0.3056  11.00000  0.05    0.32
Q79   1   0.7231  0.5588  0.4409  11.00000  0.05    0.32
Q80   1   1.1766  0.4157  0.8017  11.00000  0.05    0.32
Q81   1   1.1552  0.2036  0.7659  11.00000  0.05    0.31
Q82   1   0.5181  0.3839  0.2755  11.00000  0.05    0.31
Q83   1   1.1855  0.6138  0.8175  11.00000  0.05    0.31
Q84   1   1.0954  0.3936  0.8834  11.00000  0.05    0.31
Q85   1   0.3226  0.1985  0.2940  11.00000  0.05    0.31
Q86   1   0.6027  0.6376  0.2825  11.00000  0.05    0.31
Q87   1   1.0566  0.1439  0.9359  11.00000  0.05    0.30
Q88   1   0.4744  0.4020  0.5770  11.00000  0.05    0.30
Q89   1   0.4401  0.1859  0.1008  11.00000  0.05    0.30
Q90   1   0.8366  0.2951  0.8560  11.00000  0.05    0.30
Q91   1   0.5995  0.3919  0.6593  11.00000  0.05    0.30
Q92   1   0.5046  0.6124  0.2901  11.00000  0.05    0.30
Q93   1   1.0000  0.0000  1.0000  10.50000  0.05    0.29
Q94   1   0.6882  0.2337  0.3828  11.00000  0.05    0.29
Q95   1   1.0198  0.0433  1.0145  11.00000  0.05    0.29
Q96   1   0.6245  0.3903  0.4461  11.00000  0.05    0.29
Q97   1   0.8841  0.4199  0.8382  11.00000  0.05    0.29
Q98   1   1.2567  0.1966  1.1860  11.00000  0.05    0.29
Q99   1   0.7874  0.3141  1.2003  11.00000  0.05    0.29
Q100  1   0.7269  0.3319  0.0813  11.00000  0.05    0.27
;
_shelx_res_checksum              4986
_shelx_hkl_file
;
   0   1   3 26485.7 1207.09   1
   0  -1  -3 28491.8 1002.52   1
   0  -1  -4 674.247 180.269   1
   0  -1  -5 16396.9 1074.19   1
   0  -1  -6 16121.9 1184.47   1
   0  -1  -7 11627.5 1064.81   1
   0  -1  -8-184.631 240.431   1
   0  -1  -9 688.748 255.675   1
   0  -1 -10 446.715 232.536   1
   0   2   4 2.78055 50.3564   1
   0  -2  -6 25.2014 59.9555   1
   0  -2  -8 9047.99 898.339   1
   0  -2  -9 277.095 169.454   1
   0   3   5 761.321 213.002   1
   0   3   6 2676.04 519.735   1
   0   3   7 785.259 333.066   1
   0   4   6 61.2930 67.0721   1
   0   4   7 1016.30 274.226   1
   0   4   8 2473.82 671.263   1
   0   5   8 13.7897 21.5181   1
   1   0   1 5.34030 20.7715   1
  -1   0  -1 6.05759 24.3587   1
  -1   0  -2 126938. 3048.22   1
   1   0   2 131477. 3195.14   1
  -1   0  -3 37.7926 105.478   1
  -1   0  -5-5.21729 84.6071   1
  -1   0  -6 10932.2 1390.68   1
  -1   0  -7 94.0823 184.263   1
   1  -1  -9 1016.59 328.451   1
   1  -1  -8 2435.82 484.134   1
   1  -1  -7 1576.02 405.258   1
   1  -1  -6-55.1698 58.5767   1
   1   1   2 10386.7 759.166   1
  -1  -1  -2 11497.2 803.151   1
  -1  -1  -3 24538.2 1295.58   1
   1   1   3 26033.7 1416.03   1
   1   1   4 13595.5 1269.02   1
  -1  -1  -4 13178.9 1014.24   1
  -1  -1  -5 18294.9 1303.20   1
   1   1   5 15208.9 1576.99   1
  -1  -1  -6 64.3482 109.105   1
  -1  -1  -7 924.747 335.703   1
  -1  -1  -8 2595.70 607.060   1
  -1  -1  -9 1387.74 461.439   1
  -1  -1 -10-112.704 206.800   1
   1   2   4 1712.64 379.914   1
  -1  -2  -5 101.791 119.088   1
   1   2   5 187.520 187.788   1
   1   2   6 1993.17 512.598   1
  -1  -2  -6 3792.45 572.642   1
  -1  -2  -7 10766.8 1069.55   1
  -1  -2  -8-7.74659 88.1070   1
  -1  -2  -9-21.3800 149.201   1
  -1  -2 -10 1998.01 548.824   1
   1   3   5 2291.18 452.948   1
   1   3   6-164.975 141.882   1
   1   3   7 14.4443 113.271   1
   1   3   8 3923.19 795.556   1
   1   4   7 3862.22 632.340   1
   1   4   8-106.658 166.002   1
   1   4   9 164.187 215.868   1
  -1   5   7 140.620 98.1118   1
   1   5   8 1489.47 401.328   1
   1   5   9 132.505 176.585   1
   2   0   0 11165.1 800.640   1
  -2   0   0 9888.07 773.171   1
  -2   0  -1-4.11510 50.2450   1
   2   0   1-13.3754 62.8590   1
   2   0   2 4756.65 705.753   1
  -2   0  -2 4379.50 627.549   1
   2   0   3 11.7586 69.7803   1
  -2   0  -3 11.4635 75.9933   1
  -2   0  -4 37138.7 2341.36   1
  -2   0  -5 10.9959 98.1438   1
  -2   0  -6 11594.2 1511.55   1
  -2   0  -7-52.4950 136.471   1
  -2   0  -8 7263.72 1296.61   1
  -2   0  -9 159.718 256.379   1
   2  -1  -2 30131.8 1091.34   1
  -2   1   2 29539.6 1048.50   1
   2  -1  -1 34295.2 1447.07   1
  -2   1   1 32010.0 1332.48   1
  -2   1   0 9.34945 27.5713   1
   2  -1   0 42.0971 86.7257   1
  -2   1  -1 32650.2 1848.49   1
   2   1   2 35469.5 1738.96   1
  -2   1  -2 39244.9 2327.75   1
  -2  -1  -2 35821.9 1811.52   1
  -2   1  -3 42591.2 2746.06   1
   2   1   3 43185.7 2175.68   1
  -2  -1  -3 40582.4 2017.89   1
  -2  -1  -4 1255.09 373.306   1
   2   1   4 1573.09 465.630   1
   2   1   5 169.632 198.010   1
  -2  -1  -5 242.456 193.470   1
  -2  -1  -6 172.223 181.726   1
   2   1   6-206.124 207.622   1
  -2  -1  -7 1439.93 392.215   1
  -2  -1  -8 703.517 336.641   1
  -2  -1  -9 13.4810 104.125   1
  -2  -1 -10 1743.63 552.957   1
   2   2   3 9857.63 1026.18   1
  -2  -2  -4 12112.7 1222.73   1
   2   2   4 12086.2 1142.67   1
   2   2   5 8019.11 1035.86   1
   2   2   6-48.4371 111.889   1
  -2  -2  -6 29.0683 81.4403   1
   2   2   7 18204.3 1976.03   1
  -2  -2  -7 25379.6 1901.37   1
  -2  -2  -8 125.057 227.179   1
  -2  -2  -9 7982.78 1111.28   1
  -2  -2 -10 567.152 318.095   1
   2   3   5 416.245 216.494   1
   2   3   6 17630.6 1545.85   1
   2   3   7 14.6648 170.283   1
   2   3   8-68.9926 197.712   1
   2   3   9 339.705 260.742   1
   2   4   7 2149.57 542.699   1
   2   4   8 1302.54 449.272   1
   2   4   9 4234.52 816.548   1
   2   5   9 1221.66 496.593   1
   3   0  -1 24.6637 72.9009   1
  -3   0   0 25.7500 69.4158   1
   3   0   0 14.4925 75.8526   1
   3   0   1-25.7952 115.296   1
  -3   0  -1 15.6576 71.1820   1
  -3   0  -2 4019.55 680.006   1
   3   0   2 4114.18 732.243   1
  -3   0  -3 35.1326 162.077   1
   3   0   3 21.6371 171.436   1
   3   0   4 14580.3 1763.81   1
  -3   0  -4 16012.2 1609.37   1
  -3   0  -5-157.459 236.200   1
   3   0   5 30.3706 205.971   1
  -3   0  -6 30069.0 2478.25   1
  -3   0  -7 146.189 249.991   1
  -3   0  -8 255.083 307.067   1
  -3   0  -9-110.542 302.589   1
   3  -1  -3 164.253 81.0817   1
  -3   1   2 9445.57 810.148   1
   3  -1  -2 10404.2 853.988   1
  -3   1   1 49275.8 1982.34   1
   3  -1  -1 50511.7 2107.15   1
  -3   1   0 24512.1 1627.33   1
   3  -1   0 26277.4 1749.03   1
   3  -1   1 44044.5 2482.55   1
  -3   1  -1 41962.7 2323.03   1
   3  -1   2 3383.67 796.253   1
  -3   1  -2 3004.27 710.049   1
   3   1   2 2948.13 566.865   1
  -3  -1  -2 2806.93 586.210   1
  -3   1  -3 720.210 387.485   1
   3   1   3 773.705 323.552   1
  -3  -1  -3 602.840 263.290   1
   3  -1   3 1177.43 536.289   1
   3   1   4 21175.3 1908.20   1
  -3  -1  -4 19784.1 1693.32   1
  -3   1  -4 21673.2 2159.39   1
   3   1   5 1115.81 499.278   1
  -3  -1  -5 1650.72 480.668   1
  -3   1  -5 939.674 518.537   1
  -3   1  -6 47.1793 133.711   1
   3   1   6 378.720 307.710   1
   3   1   7 5317.23 1388.01   1
  -3  -1  -7 7712.76 1164.47   1
  -3  -1  -8 109.289 186.162   1
  -3  -1  -9 8955.02 1335.05   1
  -3  -1 -10 1060.07 431.524   1
  -3  -1 -11 1.96155 186.187   1
  -3   2   3 39389.3 1447.57   1
   3  -2  -3 35549.1 1783.45   1
   3  -2  -2 28686.7 1777.88   1
  -3   2   2 26239.2 1464.09   1
   3  -2  -1 45327.6 2464.78   1
  -3   2   1 43261.0 2262.72   1
  -3   2   0 213.580 189.937   1
  -3   2  -1 59174.2 3168.94   1
   3   2   3 35169.3 2138.88   1
  -3  -2  -4 13267.6 1444.44   1
   3   2   4 13615.4 1352.62   1
  -3  -2  -5 8508.69 1179.22   1
   3   2   5 8139.89 1187.08   1
  -3  -2  -6 54.1571 128.513   1
   3   2   6 144.419 206.329   1
  -3  -2  -7 11483.8 1385.83   1
   3   2   7 6018.62 1222.70   1
   3   2   8 101.347 299.715   1
  -3  -2  -8 237.644 165.960   1
  -3  -2  -9 7824.36 1195.14   1
  -3  -2 -10 249.696 242.016   1
  -3  -2 -11 112.915 89.5922   1
  -3   3   3 14480.3 1138.02   1
  -3   3   2 560.737 298.786   1
   3   3   5 3052.19 691.737   1
   3   3   6 8719.25 1272.29   1
   3   3   7 737.963 376.700   1
   3   3   8 1506.78 553.793   1
   3   3   9 39.8888 238.498   1
  -3   4   5 31.8901 42.3839   1
   3   4   7 244.351 219.309   1
   3   4   8 372.149 316.592   1
   3   4   9 88.7528 175.660   1
   3   4  10 60.3216 167.503   1
  -3   5   6 396.662 155.358   1
   4   0  -1 28.1191 101.860   1
   4   0   0 75184.3 3072.89   1
  -4   0   0 73094.5 3152.88   1
   4   0   1 15.1424 38.5575   1
  -4   0  -1-40.6334 111.394   1
  -4   0  -2 2324.69 582.843   1
   4   0   2 1774.57 495.471   1
   4   0   3-41.8760 75.3986   1
  -4   0  -3-44.3729 135.088   1
   4   0   4 18684.5 2148.45   1
  -4   0  -4 17393.6 1793.34   1
   4   0   5 710.438 638.112   1
  -4   0  -5 64.4686 157.062   1
   4   0   6 6862.36 1656.84   1
  -4   0  -6 10027.7 1531.76   1
  -4   0  -7-78.3514 108.921   1
  -4   0  -8 3348.53 891.041   1
  -4   0  -9 84.3321 251.629   1
  -4   0 -10 180.076 252.069   1
   4  -1  -4 1460.96 358.892   1
   4  -1  -3 9028.52 866.791   1
  -4   1   2 4013.04 644.366   1
   4  -1  -2 5956.85 793.029   1
   4  -1  -1 9853.15 1102.52   1
  -4   1   1 9583.55 1054.98   1
  -4   1   0 14.1145 129.253   1
   4  -1   0 67.8288 153.225   1
  -4   1  -1 9877.60 1243.47   1
   4  -1   1 10541.3 1381.04   1
  -4  -1  -1 9372.69 1214.34   1
   4   1   2 2910.00 621.971   1
  -4  -1  -2 3167.57 686.821   1
   4  -1   2 3243.04 784.108   1
  -4   1  -2 3446.79 760.282   1
   4   1   3 11835.5 1417.10   1
  -4   1  -3 12980.3 1581.83   1
   4  -1   3 14349.0 1920.07   1
  -4  -1  -3 12663.3 1442.91   1
  -4  -1  -4 498.298 292.638   1
   4  -1   4 55.7353 146.453   1
  -4   1  -4 290.364 287.775   1
   4   1   4 302.130 300.797   1
   4   1   5 10959.1 1679.25   1
  -4   1  -5 8705.57 1592.63   1
  -4  -1  -5 9891.14 1372.06   1
  -4   1  -6 5197.50 1233.74   1
   4   1   6 4518.84 1230.47   1
  -4  -1  -6 6015.18 1110.17   1
   4   1   7 2974.95 997.056   1
  -4   1  -7 3285.11 958.718   1
  -4  -1  -7 5065.48 1037.01   1
   4   1   8 420.911 521.969   1
  -4  -1  -8 497.528 306.578   1
  -4  -1  -9 35.7247 69.2519   1
  -4  -1 -10 1731.14 687.531   1
  -4  -1 -11 1293.88 548.433   1
   4  -2  -6 27.5439 64.4933   1
   4  -2  -4 2069.39 418.768   1
  -4   2   3 1079.04 260.460   1
   4  -2  -3 1379.18 383.484   1
  -4   2   2 52.3067 136.877   1
   4  -2  -2 9.00760 117.393   1
   4  -2  -1 23986.9 1917.13   1
  -4   2   1 24357.8 1815.56   1
  -4   2   0 14817.5 1578.99   1
   4  -2   0 15652.2 1811.81   1
  -4   2  -1 33469.5 2575.09   1
   4  -2   1 34362.8 2880.75   1
  -4   2  -2 313.272 314.965   1
   4  -2   2 430.384 345.498   1
  -4   2  -3 7340.78 1467.75   1
   4   2   4 7435.23 1120.90   1
  -4  -2  -4 7269.45 1148.60   1
   4   2   5 5246.47 1041.22   1
  -4  -2  -5 6002.83 1072.21   1
  -4  -2  -6 54.4373 110.718   1
   4   2   6-155.330 125.923   1
   4   2   7 4131.99 1043.23   1
  -4  -2  -7 5564.21 1083.97   1
  -4  -2  -8-252.287 329.524   1
   4   2   8 31.6674 78.9258   1
   4   2   9 526.971 635.975   1
  -4  -2  -9 2451.75 694.888   1
  -4  -2 -10-14.5940 196.550   1
  -4  -2 -11 669.449 433.474   1
  -4   3   4 193.262 111.897   1
  -4   3   3 421.658 193.658   1
  -4   3   2 13382.8 1377.12   1
  -4   3   1 208.742 277.773   1
  -4   3   0 91.2164 124.405   1
   4   3   6 19893.1 2059.09   1
   4   3   7 9.10895 162.065   1
   4   3   8 162.982 262.526   1
   4   3   9 53.1715 144.623   1
   4   3  10 866.524 595.718   1
  -4   4   5 1019.85 241.233   1
  -4   4   4 5165.34 725.059   1
  -4   4   3 2683.37 645.293   1
   4   4   8 514.149 415.335   1
   4   4   9 1823.65 745.249   1
   4   4  10 125.712 393.404   1
  -4   5   6 649.864 159.692   1
   5   0  -1-10.9274 130.578   1
  -5   0   0 65.3864 143.384   1
   5   0   0-54.3101 148.145   1
   5   0   1-15.0207 102.169   1
  -5   0  -1-5.73360 31.6324   1
   5   0   2 102932. 4599.90   1
  -5   0  -2 101236. 4428.98   1
   5   0   3 17.2495 76.2501   1
  -5   0  -3-64.1988 121.844   1
   5   0   4 11291.9 1771.11   1
  -5   0  -4 9086.19 1383.71   1
  -5   0  -5 14.5320 44.8184   1
   5   0   5-12.1129 208.775   1
  -5   0  -6 5290.58 1140.22   1
   5   0   6 4074.38 1266.44   1
  -5   0  -7 98.1816 147.591   1
   5   0   7-102.320 150.161   1
  -5   0  -8-46.7574 120.357   1
  -5   0  -9 126.433 155.008   1
  -5   0 -10 4825.87 1155.11   1
   5  -1  -4 8304.86 951.030   1
   5  -1  -3 22640.1 1674.36   1
   5  -1  -2 17081.5 1539.84   1
  -5   1   1 101.283 104.357   1
   5  -1  -1 14.9576 157.416   1
   5  -1   0 1797.26 563.611   1
  -5   1   0 1668.27 491.685   1
  -5   1  -1-8.41342 15.4723   1
   5  -1   1-31.6855 192.992   1
  -5  -1  -1-39.5010 167.637   1
   5   1   1 131.359 93.2056   1
  -5  -1  -2 11270.4 1521.59   1
   5   1   2 10200.0 1342.58   1
   5  -1   2 12295.0 1728.70   1
  -5   1  -2 11258.2 1514.07   1
  -5  -1  -3 22610.4 2149.22   1
  -5   1  -3 22296.0 2331.06   1
   5   1   3 23111.6 2216.92   1
   5  -1   3 25488.3 2680.73   1
  -5   1  -4 3731.56 994.755   1
   5   1   4 4200.11 996.476   1
   5  -1   4 4356.01 1201.44   1
  -5  -1  -4 4501.61 977.706   1
   5  -1   5 24740.0 3220.56   1
  -5   1  -5 26607.0 2724.85   1
  -5  -1  -5 27182.5 2488.30   1
   5   1   5 29364.4 2842.38   1
  -5   1  -6 54.9950 268.773   1
   5   1   6 180.933 388.491   1
  -5  -1  -6-46.2256 201.617   1
  -5   1  -7 681.084 565.198   1
   5   1   7 739.167 535.371   1
  -5  -1  -7 993.466 389.567   1
   5   1   8 3490.74 1260.52   1
  -5   1  -8 5085.64 1396.59   1
  -5  -1  -8 8019.04 1442.95   1
  -5  -1  -9 604.235 306.074   1
  -5  -1 -10 97.0466 196.722   1
  -5  -1 -11 2958.19 846.622   1
   5  -2  -7 2037.16 452.409   1
   5  -2  -6 2353.37 450.725   1
   5  -2  -5-3.26213 8.99862   1
   5  -2  -4 2451.56 524.952   1
   5  -2  -3 1932.98 499.069   1
  -5   2   3 3323.16 602.740   1
   5  -2  -2-21.6822 140.731   1
  -5   2   2-53.8798 95.8623   1
   5  -2  -1 18075.4 1832.23   1
  -5   2   1 20215.0 1726.37   1
  -5   2   0 1075.67 453.754   1
   5  -2   0 700.277 403.727   1
   5  -2   1 13583.8 1921.55   1
  -5   2  -1 12706.8 1669.48   1
   5  -2   2 142.958 277.846   1
  -5   2  -2 77.9493 20.4785   1
   5  -2   3 1938.05 822.797   1
  -5   2  -3 2633.98 825.001   1
   5   2   4 6336.74 1109.48   1
  -5   2  -4 6664.73 1552.13   1
  -5  -2  -4 6642.84 1234.45   1
  -5  -2  -5 310.599 311.637   1
   5   2   5 495.794 337.333   1
  -5   2  -5 347.310 444.318   1
  -5  -2  -6 6544.31 1254.57   1
   5   2   6 5235.02 1171.99   1
   5   2   7 2355.06 909.906   1
  -5  -2  -7 5111.19 1153.70   1
  -5  -2  -8 69.4566 114.858   1
   5   2   8-39.0514 235.135   1
  -5  -2  -9-219.570 406.934   1
   5   2   9 111.298 390.441   1
   5   2  10 371.046 576.857   1
  -5  -2 -10 881.670 518.243   1
  -5  -2 -11 1740.70 781.860   1
  -5   3   4 703.475 248.411   1
  -5   3   3 918.324 312.279   1
  -5   3   2 3840.39 776.540   1
  -5   3   1 1877.88 584.254   1
  -5   3  -1-53.5984 140.254   1
  -5   3  -2 147.745 24.3317   1
   5   3   6 711.469 450.804   1
   5   3   7 1204.56 548.545   1
   5   3   8 3477.10 1092.79   1
   5   3   9 142.074 153.329   1
   5   3  10 997.696 458.693   1
   5   3  11 24.5492 200.316   1
  -5   4   4 562.287 212.479   1
  -5   4   3 24354.7 1897.39   1
   5   4   8-82.2385 172.768   1
   5   4   9 244.189 186.822   1
   5   4  10 378.720 203.544   1
  -5   5   6 99.3706 92.5209   1
  -5   5   5 3610.56 585.696   1
  -5   5   4-50.4995 153.701   1
  -5   6   6 3376.95 563.251   1
   6   0  -1-26.3351 135.066   1
   6   0   0 127186. 5135.63   1
   6   0   1 65.6874 200.324   1
  -6   0  -1-45.3333 187.517   1
  -6   0  -2 87.1276 84.3368   1
   6   0   2 122.524 240.881   1
  -6   0  -3 51.1466 147.217   1
   6   0   3 56.0822 105.016   1
  -6   0  -4 9821.90 1620.31   1
   6   0   4 10571.5 1841.05   1
   6   0   5 30.3160 221.387   1
  -6   0  -5-95.0487 370.697   1
   6   0   6 8160.37 1911.51   1
  -6   0  -6 7071.18 1402.91   1
  -6   0  -7 12.0214 244.584   1
   6   0   7 441.745 374.052   1
  -6   0  -8 11847.7 2009.95   1
   6   0   8 4934.04 1722.44   1
  -6   0  -9-159.400 199.976   1
  -6   0 -10 4083.14 1271.66   1
   6  -1  -4 2144.47 518.664   1
   6  -1  -3 23537.2 1978.86   1
   6  -1  -2 6289.57 1062.78   1
  -6   1   2 6255.67 1011.17   1
  -6   1   1 8987.23 1276.41   1
   6  -1  -1 7204.79 1203.49   1
   6  -1   0 2412.62 738.595   1
  -6   1   0 2409.97 656.525   1
   6  -1   1 3136.33 903.614   1
  -6   1  -1 3381.75 861.594   1
  -6   1  -2 1230.69 498.680   1
   6   1   2 1741.42 591.836   1
   6  -1   2 979.351 577.210   1
  -6  -1  -2 1412.94 551.025   1
  -6  -1  -3 19233.8 2213.13   1
  -6   1  -3 17970.4 2181.61   1
   6   1   3 18903.3 2192.12   1
   6  -1   3 18493.0 2518.94   1
   6  -1   4 4140.82 1209.57   1
   6   1   4 4644.58 1095.03   1
  -6  -1  -4 5402.42 1171.98   1
  -6   1  -4 4781.96 1164.07   1
  -6   1  -5 2437.40 821.151   1
  -6  -1  -5 2692.35 830.340   1
   6  -1   5 2226.69 948.545   1
   6   1   5 2987.91 980.646   1
   6  -1   6 4232.17 1484.53   1
  -6   1  -6 5525.45 1396.33   1
   6   1   6 5010.92 1309.05   1
  -6  -1  -6 5689.54 1217.20   1
  -6   1  -7 7579.02 1653.78   1
  -6  -1  -7 7386.76 1449.57   1
   6   1   7 4896.15 1373.77   1
  -6   1  -8 507.206 555.808   1
   6   1   8 195.259 535.289   1
  -6  -1  -8 929.151 513.924   1
   6   1   9 93.9329 314.398   1
  -6   1  -9 472.815 537.517   1
  -6  -1  -9 444.911 418.384   1
  -6  -1 -10 1233.10 613.802   1
  -6  -1 -11 269.252 420.154   1
   6  -2  -7 76.2185 145.472   1
   6  -2  -6 27.5960 53.2756   1
   6  -2  -5 4622.01 803.816   1
   6  -2  -4 1148.73 403.624   1
   6  -2  -3 9658.28 1346.73   1
  -6   2   3 12950.4 1362.11   1
  -6   2   2 11656.3 1382.30   1
   6  -2  -2 8482.65 1341.62   1
   6  -2  -1 1619.97 680.110   1
  -6   2   1 1740.68 534.681   1
  -6   2   0 3.24309 77.9902   1
   6  -2   0-55.4158 115.555   1
   6  -2   1-2.21619 106.590   1
  -6   2  -1 62.9032 266.166   1
  -6   2  -2 9345.57 1657.28   1
   6  -2   2 9296.60 1837.50   1
  -6   2  -3 28512.7 2909.55   1
   6  -2   3 24843.0 3441.71   1
  -6  -2  -4 24.2645 188.534   1
  -6   2  -4 142.668 239.707   1
   6   2   4 106.624 167.592   1
   6  -2   4-225.638 478.769   1
  -6  -2  -5 7620.79 1416.00   1
   6   2   5 7922.58 1453.85   1
  -6   2  -5 7512.79 1659.41   1
  -6  -2  -6 14.1695 259.272   1
  -6   2  -6 45.5178 121.574   1
   6   2   6-87.2030 38.8788   1
   6   2   7 252.442 565.623   1
  -6  -2  -7 150.994 300.439   1
  -6  -2  -8 7721.00 1486.38   1
   6   2   8 4411.77 1372.02   1
   6   2   9 679.070 519.224   1
  -6  -2  -9 2427.68 881.369   1
  -6  -2 -10 190.723 270.196   1
   6   2  10-37.6070 334.549   1
  -6  -2 -11 370.679 330.861   1
   6  -3  -5 124.466 235.413   1
   6  -3  -4-121.626 180.080   1
  -6   3   4-118.684 175.475   1
   6  -3  -3 2901.39 862.473   1
  -6   3   3 6088.95 907.648   1
  -6   3   2 13558.8 1507.86   1
   6  -3  -2 10508.3 1690.91   1
  -6   3   1 4301.25 957.612   1
   6  -3  -1 3062.72 996.680   1
   6  -3   0-2.43402 158.889   1
  -6   3   0-70.4058 241.893   1
  -6   3  -1 2397.37 854.108   1
   6  -3   1 2066.93 903.563   1
  -6   3  -2 28587.5 3086.64   1
  -6   3  -3 4100.78 1264.72   1
   6   3   6 853.733 522.332   1
   6   3   7 1142.71 699.710   1
   6   3   8 74.8048 129.699   1
   6   3   9 235.495 292.154   1
   6   3  10 980.807 656.571   1
   6   3  11-121.074 426.822   1
  -6   4   4 8406.20 1017.35   1
  -6   4   3 12946.2 1478.83   1
  -6   4   2 144.398 59.3476   1
  -6   4   1-20.4020 127.805   1
  -6   5   5 806.845 308.521   1
  -6   5   4 30.4171 136.908   1
  -6   5   3 5333.00 1079.04   1
  -6   6   6-19.9982 72.6568   1
  -6   6   5 2019.12 529.548   1
   7   0  -1 1.82718 119.275   1
   7   0   0-3.90871 162.808   1
  -7   0   0 6.02441 143.599   1
   7   0   1 49.3263 233.062   1
  -7   0  -1-23.4218 248.640   1
  -7   0  -2 12054.5 1884.37   1
   7   0   2 11770.9 1872.93   1
  -7   0  -3 53.5508 249.079   1
   7   0   3-2.62180 189.701   1
   7   0   4-68.1399 138.690   1
  -7   0  -4 9.78967 240.025   1
   7   0   5 63.2383 206.404   1
  -7   0  -5-180.341 367.061   1
   7   0   6 13756.6 2454.08   1
   7   0   7 16.5879 164.982   1
  -7   0  -7 87.2127 136.091   1
  -7   0  -8 27.5807 349.776   1
   7   0   8-4.52529 338.658   1
  -7   0  -9 349.672 584.843   1
   7  -1  -4 6070.02 1085.90   1
   7  -1  -3 1613.54 535.326   1
   7  -1  -2 102.359 80.2891   1
  -7   1   1 9528.00 1486.90   1
   7  -1  -1 7234.14 1280.35   1
  -7   1   0 8778.46 1424.90   1
   7  -1   0 6836.47 1358.17   1
   7  -1   1 4037.47 1108.31   1
  -7   1  -1 5269.00 1157.88   1
   7   1   2 4.35556 270.802   1
   7  -1   2 92.7522 365.219   1
  -7  -1  -2 129.107 258.176   1
  -7   1  -2-148.836 199.063   1
   7   1   3 2801.09 864.570   1
  -7  -1  -3 3083.49 878.656   1
   7  -1   3 2423.63 995.081   1
  -7   1  -3 3075.03 903.282   1
  -7   1  -4 6799.86 1432.94   1
  -7  -1  -4 6540.21 1360.29   1
   7   1   4 6948.94 1495.00   1
   7  -1   4 7194.12 1656.63   1
  -7   1  -5 4266.03 1195.42   1
   7  -1   5 3196.95 1134.72   1
  -7  -1  -5 3975.29 1075.74   1
   7   1   5 2609.05 918.666   1
  -7   1  -6-105.577 404.387   1
   7   1   6-103.270 1610.84   1
   7  -1   6 134.260 266.072   1
  -7  -1  -6 58.6579 134.818   1
  -7   1  -7 577.395 508.785   1
   7  -1   7 374.605 453.701   1
  -7  -1  -7 1719.81 708.911   1
   7   1   7 973.968 736.355   1
  -7   1  -8 190.739 182.567   1
   7   1   8 247.493 488.495   1
  -7  -1  -8 50.0429 141.581   1
   7   1   9 1186.94 1054.02   1
  -7  -1  -9 1773.52 866.793   1
   7  -2  -7 2997.35 689.409   1
   7  -2  -6 287.896 208.695   1
   7  -2  -5 3104.03 717.174   1
   7  -2  -4-33.1243 111.443   1
  -7   2   3 8867.04 1206.34   1
   7  -2  -3 7476.93 1306.07   1
   7  -2  -2 1650.88 599.034   1
  -7   2   2 2722.55 684.072   1
  -7   2   1 11421.8 1574.62   1
   7  -2  -1 7955.87 1454.97   1
   7  -2   0-113.033 168.839   1
  -7   2   0 138.848 138.168   1
  -7   2  -1 8767.57 1501.97   1
   7  -2   1 8175.32 1682.98   1
  -7   2  -2 1543.58 692.079   1
   7  -2   2 605.236 500.851   1
  -7   2  -3 7872.81 1585.41   1
   7  -2   3 7712.96 2075.07   1
  -7   2  -4 46.8279 154.981   1
   7   2   4-338.402 455.755   1
   7  -2   4 114.259 331.087   1
  -7   2  -5 2006.40 873.386   1
  -7  -2  -5 1787.12 757.227   1
   7   2   5 2083.45 680.607   1
   7  -2   5 1708.14 963.019   1
  -7   2  -6 531.626 473.169   1
  -7  -2  -6 322.336 314.449   1
   7   2   6 480.865 371.879   1
   7   2   7 6303.87 1611.62   1
  -7   2  -7 8475.38 1964.70   1
  -7  -2  -7 8717.15 1764.28   1
  -7  -2  -8 95.5200 332.644   1
   7   2   8 241.848 487.492   1
   7   2   9 480.137 507.852   1
  -7  -2  -9 74.7332 314.903   1
   7  -3  -6 499.615 308.650   1
   7  -3  -5-56.0482 227.989   1
  -7   3   4 18147.4 1666.31   1
   7  -3  -4 12507.7 1704.33   1
   7  -3  -3 161.235 210.670   1
  -7   3   3 520.914 313.684   1
   7  -3  -2-116.819 175.106   1
  -7   3   2-9.97598 156.747   1
  -7   3   1 378.497 302.336   1
   7  -3  -1 58.0763 180.564   1
  -7   3   0 17881.4 2151.55   1
   7  -3   0 13331.3 2331.21   1
  -7   3  -1 139.781 390.376   1
   7  -3   1 194.369 359.486   1
   7  -3   2 388.186 473.771   1
  -7   3  -2 429.150 453.532   1
  -7   3  -3 2.75405 105.268   1
  -7   3  -4 15824.3 2561.03   1
   7   3   7-66.9433 75.3887   1
   7   3   8 2891.13 1014.77   1
   7   3   9 105.018 173.665   1
  -7   4   5 1003.00 316.910   1
  -7   4   4 18.8408 75.9110   1
  -7   4   3 4076.85 861.451   1
  -7   4   2 2056.35 682.590   1
  -7   4   1 4961.59 1112.87   1
  -7   4   0 33.5129 69.7269   1
  -7   4  -1 2801.63 1078.00   1
  -7   5   5 3490.57 638.185   1
  -7   5   4 492.900 287.323   1
  -7   5   3 370.975 278.001   1
  -7   5   2 28.1159 191.798   1
  -7   6   5 96.1420 68.6800   1
  -7   6   4 1.46437 62.5793   1
   8   0   0 272.391 309.913   1
  -8   0   0 210.876 213.175   1
  -8   0  -1 48.0654 199.342   1
   8   0   1-7.61261 216.882   1
  -8   0  -2 100.625 348.177   1
   8   0   2 226.581 399.861   1
  -8   0  -3 182.863 325.745   1
   8   0   3 33.7895 275.357   1
  -8   0  -4 13496.4 2171.05   1
   8   0   4 13626.7 2625.25   1
   8   0   5-3.61964 336.535   1
  -8   0  -5 89.9737 286.589   1
   8   0   6 17817.2 2919.65   1
  -8   0  -6 20746.6 2813.53   1
   8   0   7-89.7897 423.246   1
  -8   0  -7 65.9321 192.478   1
   8  -1  -3 989.260 479.907   1
   8  -1  -2 3968.11 990.359   1
  -8   1   1 3885.58 976.742   1
   8  -1  -1 3014.12 901.598   1
  -8   1   0 210.624 139.059   1
   8  -1   0 242.939 303.904   1
   8  -1   1 5394.05 1414.19   1
  -8   1  -1 7143.62 1421.92   1
  -8   1  -2 10744.2 1791.27   1
   8  -1   2 6663.17 1730.26   1
   8   1   2 7708.94 1584.69   1
  -8  -1  -2 6627.67 1394.48   1
  -8  -1  -3 5434.41 1395.76   1
   8   1   3 4410.35 1228.90   1
   8  -1   3 3257.01 1221.36   1
  -8   1  -3 4709.79 1232.08   1
  -8  -1  -4 3462.90 1028.85   1
   8   1   4 4386.42 1287.55   1
   8  -1   4 2649.48 1157.63   1
  -8   1  -4 4602.58 1274.21   1
   8   1   5 2204.23 875.160   1
   8  -1   5 1784.93 988.913   1
  -8  -1  -5 2091.56 834.834   1
  -8   1  -5 2117.40 737.479   1
   8  -1   6 716.594 361.381   1
   8   1   6 358.075 330.910   1
  -8  -1  -6 688.727 422.192   1
  -8   1  -6 934.907 591.436   1
  -8  -1  -7 876.252 672.319   1
   8   1   7 152.683 412.079   1
   8  -2  -6 481.190 291.601   1
   8  -2  -5 2716.13 830.661   1
   8  -2  -4 3028.43 870.232   1
   8  -2  -3-80.5570 67.9488   1
   8  -2  -2 4258.45 1079.12   1
  -8   2   2 6059.72 1227.72   1
  -8   2   1 28186.8 2710.49   1
   8  -2  -1 19651.9 2598.49   1
   8  -2   0 4857.31 1386.02   1
  -8   2   0 6758.74 1385.96   1
  -8   2  -1 20857.2 2547.26   1
   8  -2   1 14773.6 2472.11   1
  -8   2  -2 2969.82 969.596   1
   8  -2   2 1703.05 878.218   1
  -8   2  -3 111.781 116.511   1
   8  -2   3-748.016 585.085   1
  -8   2  -4 7465.11 1665.37   1
   8  -2   4 6811.51 1885.22   1
  -8   2  -5 2895.03 988.978   1
   8  -2   5 1002.23 750.682   1
   8   2   5 2069.06 828.620   1
  -8   2  -6-3.40882 228.792   1
  -8  -2  -6 152.157 272.047   1
   8   2   6-60.1507 156.437   1
   8   2   7 10316.9 2053.83   1
  -8  -2  -7 11257.2 2074.44   1
   8  -3  -6 9559.62 1537.28   1
   8  -3  -5 158.755 193.323   1
   8  -3  -4 77.3274 190.525   1
  -8   3   4 89.0318 177.779   1
   8  -3  -3 124.028 210.224   1
  -8   3   3 142.941 243.298   1
  -8   3   2 11283.8 1609.84   1
   8  -3  -2 7524.73 1617.28   1
   8  -3  -1 2446.92 986.270   1
  -8   3   1 2920.49 808.282   1
  -8   3   0 330.644 234.139   1
   8  -3   0 285.001 372.265   1
  -8   3  -1 1620.43 767.530   1
   8  -3   1 1163.68 758.392   1
  -8   3  -2 4062.03 1173.00   1
   8  -3   2 2203.17 1183.56   1
  -8   3  -3-12.2327 101.232   1
   8  -3   3-185.235 399.597   1
  -8   3  -4 33.8115 271.605   1
  -8   3  -5 474.922 249.193   1
  -8   4   5 1951.38 492.851   1
  -8   4   4 2457.57 620.897   1
  -8   4   3 79.1647 245.396   1
  -8   4   2-36.0016 217.278   1
  -8   4   1 11162.2 1765.04   1
  -8   4   0 5305.18 1353.63   1
  -8   4  -1 16585.8 2685.80   1
  -8   4  -2 78.1974 232.302   1
  -8   5   5 2426.31 557.511   1
  -8   5   4 1.53307 92.6525   1
  -8   5   3 7578.61 1329.60   1
  -8   5   2-105.719 212.817   1
  -8   5   1 47.0378 170.171   1
  -8   6   5 182.371 202.577   1
  -8   6   4 14896.0 1763.25   1
   9   0   0-139.833 392.026   1
  -9   0  -1-50.2364 134.440   1
   9   0   1-38.7862 285.102   1
  -9   0  -2 326.489 411.714   1
   9   0   2 469.936 424.280   1
   9   0   3-216.550 295.733   1
  -9   0  -3-58.3398 151.727   1
   9   0   4 168.518 198.163   1
  -9   0  -4 1452.09 630.109   1
   9  -1  -3 393.414 271.950   1
   9  -1  -2 1687.69 682.494   1
  -9   1   1 8206.66 1593.77   1
   9  -1  -1 5947.87 1454.94   1
  -9   1   0 3830.31 1045.57   1
   9  -1   0 2351.68 916.630   1
   9  -1   1 5272.94 1461.75   1
  -9   1  -1 7265.52 1575.48   1
   9  -1   2 295.433 280.480   1
  -9   1  -2-99.0388 168.855   1
  -9  -1  -3 521.099 299.774   1
   9   1   3 947.701 604.569   1
   9  -1   3 441.572 555.598   1
  -9   1  -3 1162.87 709.867   1
  -9  -1  -4 7007.85 1673.74   1
   9   1   4 4908.78 1615.80   1
  -9   1  -4 6658.53 1594.62   1
   9  -1   4 4989.24 1703.80   1
   9  -2  -5 3092.60 901.675   1
   9  -2  -4 7.09694 142.970   1
   9  -2  -3 5040.26 1314.22   1
   9  -2  -2 1027.93 606.065   1
  -9   2   2 2612.85 787.718   1
   9  -2  -1 1968.85 746.792   1
  -9   2   1 3320.06 1004.88   1
   9  -2   0 135.285 232.874   1
  -9   2   0 26.6815 58.8810   1
   9  -2   1 3729.38 1320.80   1
  -9   2  -1 6634.03 1490.73   1
  -9   2  -2 3933.12 1204.50   1
   9  -2   2 3149.79 1215.16   1
   9  -2   3 6045.63 1928.69   1
  -9   2  -3 7921.82 1770.25   1
   9  -2   4 98.5118 282.407   1
  -9   2  -4 1536.48 809.067   1
   9  -3  -6 570.796 480.173   1
   9  -3  -5 119.756 329.819   1
   9  -3  -4 14294.0 2147.09   1
   9  -3  -3 468.522 459.380   1
  -9   3   3 1819.38 650.434   1
   9  -3  -2 110.021 393.737   1
  -9   3   2 8.87707 210.650   1
   9  -3  -1 48.9158 200.343   1
  -9   3   1 48.8589 245.577   1
   9  -3   0 887.217 812.415   1
  -9   3   0 3257.32 1008.84   1
  -9   3  -1 243.086 314.407   1
   9  -3   1 36.6681 333.397   1
  -9   3  -2 173.424 251.264   1
   9  -3   2 239.530 131.937   1
  -9   3  -3 1961.83 896.647   1
   9  -3   3 904.869 744.793   1
  -9   3  -4 16553.7 2762.96   1
  -9   4   4 156.651 94.1999   1
  -9   4   3-31.9333 272.399   1
   9  -4  -3-18.4053 95.7351   1
   9  -4  -2 553.856 570.451   1
  -9   4   2 2996.59 916.153   1
   9  -4  -1 1204.59 809.240   1
  -9   4   1 4413.85 1141.53   1
  -9   4   0 97.8450 71.4739   1
  -9   4  -1 4037.31 1262.54   1
  -9   4  -2 2389.46 1031.19   1
  -9   4  -3 5034.03 1547.87   1
  -9   5   5 3452.18 802.843   1
  -9   5   4 1848.26 580.048   1
  -9   5   3-8.10527 292.375   1
  -9   5   2 272.213 304.893   1
  -9   5   1 4476.52 1237.61   1
  -9   5   0 37.2906 340.895   1
  -9   6   4-10.5220 136.826   1
  -9   6   3-41.5334 196.406   1
  10   0   1-182.242 276.002   1
 -10   0  -2-25.2377 228.530   1
  10   0   2-50.3398 245.448   1
  10  -1  -2 1230.15 698.792   1
  10  -1  -1 2057.16 948.808   1
  10  -1   0 254.441 380.059   1
 -10   1   0 114.113 304.911   1
  10  -1   1 762.080 664.638   1
 -10   1  -1 2541.64 1044.53   1
  10  -1   2 366.570 445.285   1
 -10   1  -2-256.614 564.439   1
  10  -2  -4 2.92259 241.322   1
  10  -2  -3 440.747 313.544   1
  10  -2  -2 49.0106 119.572   1
 -10   2   2 709.448 508.021   1
  10  -2  -1-134.070 470.721   1
 -10   2   1 423.828 596.673   1
 -10   2   0-118.776 336.157   1
  10  -2   0 609.850 542.102   1
 -10   2  -1 391.714 373.947   1
  10  -2   1 288.070 526.122   1
  10  -2   2 289.888 308.454   1
 -10   2  -2 83.4694 402.483   1
  10  -3  -5 10.8189 290.883   1
  10  -3  -4 107.073 466.020   1
  10  -3  -3 129.188 382.480   1
 -10   3   3 70.2226 186.248   1
  10  -3  -2 2555.72 1011.67   1
 -10   3   2 5871.83 1367.10   1
  10  -3  -1 90.5900 365.468   1
 -10   3   1 67.0496 30.8262   1
  10  -3   0-139.667 415.076   1
 -10   3   0-15.1836 183.527   1
 -10   3  -1-135.794 175.266   1
  10  -3   1 102.396 366.758   1
 -10   4   4 3291.87 897.466   1
  10  -4  -4 1895.27 919.839   1
 -10   4   3 2541.32 771.240   1
  10  -4  -3 489.281 352.093   1
 -10   4   2 15.1998 207.302   1
  10  -4  -2 53.3114 192.547   1
  10  -4  -1 242.066 282.715   1
 -10   4   1 262.886 108.046   1
  10  -4   0 301.481 244.600   1
 -10   4   0 3884.27 1149.73   1
 -10   4  -1-9.62434 232.124   1
 -10   5   4 16.0348 138.115   1
 -10   5   3 3580.47 942.091   1
 -10   5   2 210.392 295.572   1
 -10   5   1 6877.05 1555.91   1
 -10   5   0 228.594 281.613   1
 -10   6   4 255.863 317.469   1
 -10   6   3 294.515 337.410   1
  11  -1  -1 252.206 419.327   1
  11  -2  -3 247.535 491.935   1
  11  -2  -2-231.684 539.953   1
 -11   2   1 4824.08 1343.37   1
  11  -2  -1 1340.21 841.042   1
  11  -3  -4 13.5979 283.194   1
  11  -3  -3-75.6516 283.870   1
  11  -3  -2 574.163 577.563   1
 -11   3   2 260.734 416.110   1
  11  -3  -1 847.170 889.777   1
 -11   3   1 592.116 639.146   1
  11  -4  -4 108.024 417.095   1
  11  -4  -3 2982.59 1425.77   1
 -11   4   3 7307.99 1528.26   1
  11  -4  -2 560.761 646.739   1
 -11   4   2 1963.85 717.191   1
  11  -4  -1-93.9016 469.121   1
 -11   4   1 415.333 539.695   1
 -11   5   4 4.50741 194.221   1
 -11   5   3 6648.19 1449.48   1
 -11   5   2 356.115 340.196   1
  12  -4  -4 85.4330 415.103   1
 -12   5   4 27.6753 333.132   1
   0   0   0    0.00    0.00   0

TITL slav_p04_s1 in P2(1)/c
REM P2(1)/c (#14 in standard setting)
CELL 0.41106   8.326997   9.205214   8.471914  90.0000  90.2985  90.0000
ZERR    3.00   0.001050   0.007851   0.001420   0.0000   0.0141   0.0000
LATT  1
SYMM -x, y+1/2,-z+1/2
SFAC O Al Si Sr
UNIT 24.00 6.00 6.00 3.00
TREF
HKLF 4
END
;
_shelx_hkl_checksum              99164
loop_
_space_group_symop_operation_xyz
'x, y, z'
'-x, y+1/2, -z+1/2'
'-x, -y, -z'
'x, -y-1/2, z-1/2'
loop_
_atom_site_label
_atom_site_type_symbol
_atom_site_fract_x
_atom_site_fract_y
_atom_site_fract_z
_atom_site_U_iso_or_equiv
_atom_site_adp_type
_atom_site_occupancy
_atom_site_site_symmetry_order
_atom_site_calc_flag
_atom_site_refinement_flags_posn
_atom_site_refinement_flags_adp
_atom_site_refinement_flags_occupancy
_atom_site_disorder_assembly
_atom_site_disorder_group
Sr1 Sr 0.74972(18) 0.4071(5) 0.6298(2) 0.0283(18) Uani 1 1 d . . . . .
Si1 Si 0.5633(6) 0.4240(14) 0.2503(7) 0.029(5) Uani 1 1 d . . . . .
Si2 Si 1.0609(5) 0.3015(15) 0.9489(7) 0.029(5) Uani 1 1 d . . . . .
Al1 Al 1.0712(7) 0.5701(14) 0.7572(8) 0.027(5) Uani 1 1 d . . . . .
Al2 Al 0.4244(6) 0.2012(17) 0.4523(9) 0.029(6) Uani 1 1 d . . . . .
O1 O 0.7406(16) 0.413(3) 0.3359(19) 0.029(4) Uiso 1 1 d . . . . .
O2 O 1.0028(17) 0.393(4) 0.801(2) 0.033(4) Uiso 1 1 d . . . . .
O3 O 1.0625(17) 0.134(3) 0.8937(19) 0.029(4) Uiso 1 1 d . . . . .
O4 O 0.4341(17) 0.380(4) 0.3829(19) 0.028(4) Uiso 1 1 d . . . . .
O5 O 0.5700(15) 0.315(4) 0.1055(18) 0.030(4) Uiso 1 1 d . . . . .
O6 O 1.2330(15) 0.341(3) 1.0183(17) 0.026(3) Uiso 1 1 d . . . . .
O7 O 0.9178(15) 0.321(3) 1.0857(19) 0.028(4) Uiso 1 1 d . . . . .
O8 O 0.5021(15) 0.578(3) 0.2010(16) 0.021(3) Uiso 1 1 d . . . . .
loop_
_atom_site_aniso_label
_atom_site_aniso_U_11
_atom_site_aniso_U_22
_atom_site_aniso_U_33
_atom_site_aniso_U_23
_atom_site_aniso_U_13
_atom_site_aniso_U_12
Sr1 0.0160(10) 0.028(6) 0.0407(15) -0.0017(10) -0.0048(8) 0.0006(9)
Si1 0.010(2) 0.043(17) 0.032(4) 0.002(4) -0.005(2) -0.002(3)
Si2 0.014(2) 0.040(17) 0.033(4) 0.010(4) -0.004(2) 0.000(3)
Al1 0.014(3) 0.03(2) 0.038(5) -0.008(4) -0.007(3) -0.005(3)
Al2 0.016(3) 0.03(2) 0.045(5) -0.005(5) -0.006(3) 0.002(4)
loop_
_atom_type_symbol
_atom_type_description
_atom_type_scat_dispersion_real
_atom_type_scat_dispersion_imag
_atom_type_scat_source
O O 0.0017 0.0018 'International Tables Vol C Tables 4.2.6.8 and 6.1.1.4'
Al Al 0.0192 0.0163 'International Tables Vol C Tables 4.2.6.8 and 6.1.1.4'
Si Si 0.0265 0.0226 'International Tables Vol C Tables 4.2.6.8 and 6.1.1.4'
Sr Sr 0.2429 1.2951 'International Tables Vol C Tables 4.2.6.8 and 6.1.1.4'
loop_
_geom_angle_atom_site_label_1
_geom_angle_atom_site_label_2
_geom_angle_atom_site_label_3
_geom_angle
_geom_angle_site_symmetry_1
_geom_angle_site_symmetry_3
_geom_angle_publ_flag
O1 Sr1 O4 85.6(7) . 3_666 ?
O1 Sr1 O5 85.5(7) . 4_566 ?
O4 Sr1 O5 105.6(8) 3_666 4_566 ?
O1 Sr1 O7 83.5(7) . 4_565 ?
O4 Sr1 O7 168.4(5) 3_666 4_565 ?
O5 Sr1 O7 69.5(7) 4_566 4_565 ?
O1 Sr1 O8 122.7(4) . 3_666 ?
O4 Sr1 O8 58.4(7) 3_666 3_666 ?
O5 Sr1 O8 66.6(7) 4_566 3_666 ?
O7 Sr1 O8 125.4(8) 4_565 3_666 ?
O1 Sr1 O2 126.1(5) . . ?
O4 Sr1 O2 124.7(9) 3_666 . ?
O5 Sr1 O2 119.3(9) 4_566 . ?
O7 Sr1 O2 65.8(8) 4_565 . ?
O8 Sr1 O2 111.2(5) 3_666 . ?
O1 Sr1 O3 85.5(7) . 2_756 ?
O4 Sr1 O3 74.7(7) 3_666 2_756 ?
O5 Sr1 O3 171.0(5) 4_566 2_756 ?
O7 Sr1 O3 108.4(7) 4_565 2_756 ?
O8 Sr1 O3 119.6(8) 3_666 2_756 ?
O2 Sr1 O3 65.9(8) . 2_756 ?
O1 Sr1 Si1 106.6(5) . 3_666 ?
O4 Sr1 Si1 29.6(5) 3_666 3_666 ?
O5 Sr1 Si1 86.3(5) 4_566 3_666 ?
O7 Sr1 Si1 153.3(6) 4_565 3_666 ?
O8 Sr1 Si1 28.8(6) 3_666 3_666 ?
O2 Sr1 Si1 121.0(5) . 3_666 ?
O3 Sr1 Si1 97.2(5) 2_756 3_666 ?
O1 Sr1 Al1 110.0(5) . . ?
O4 Sr1 Al1 98.9(5) 3_666 . ?
O5 Sr1 Al1 151.9(5) 4_566 . ?
O7 Sr1 Al1 88.6(5) 4_565 . ?
O8 Sr1 Al1 117.9(5) 3_666 . ?
O2 Sr1 Al1 32.8(7) . . ?
O3 Sr1 Al1 33.4(4) 2_756 . ?
Si1 Sr1 Al1 109.9(3) 3_666 . ?
O1 Sr1 Si1 24.1(3) . . ?
O4 Sr1 Si1 70.3(4) 3_666 . ?
O5 Sr1 Si1 73.1(4) 4_566 . ?
O7 Sr1 Si1 98.1(4) 4_565 . ?
O8 Sr1 Si1 98.6(3) 3_666 . ?
O2 Sr1 Si1 150.2(4) . . ?
O3 Sr1 Si1 98.9(4) 2_756 . ?
Si1 Sr1 Si1 85.04(19) 3_666 . ?
Al1 Sr1 Si1 129.3(2) . . ?
O1 Sr1 Al1 107.3(7) . 2_746 ?
O4 Sr1 Al1 162.1(5) 3_666 2_746 ?
O5 Sr1 Al1 64.4(5) 4_566 2_746 ?
O7 Sr1 Al1 25.3(4) 4_565 2_746 ?
O8 Sr1 Al1 103.8(6) 3_666 2_746 ?
O2 Sr1 Al1 57.4(8) . 2_746 ?
O3 Sr1 Al1 117.7(5) 2_756 2_746 ?
Si1 Sr1 Al1 132.5(2) 3_666 2_746 ?
Al1 Sr1 Al1 88.28(12) . 2_746 ?
Si1 Sr1 Al1 117.3(2) . 2_746 ?
O1 Sr1 Si1 107.1(7) . 4_566 ?
O4 Sr1 Si1 114.6(5) 3_666 4_566 ?
O5 Sr1 Si1 23.1(4) 4_566 4_566 ?
O7 Sr1 Si1 65.2(5) 4_565 4_566 ?
O8 Sr1 Si1 61.6(7) 3_666 4_566 ?
O2 Sr1 Si1 98.8(7) . 4_566 ?
O3 Sr1 Si1 164.4(4) 2_756 4_566 ?
Si1 Sr1 Si1 88.16(12) 3_666 4_566 ?
Al1 Sr1 Si1 131.1(2) . 4_566 ?
Si1 Sr1 Si1 96.15(19) . 4_566 ?
Al1 Sr1 Si1 50.47(18) 2_746 4_566 ?
O8 Si1 O5 112.3(11) . . ?
O8 Si1 O4 101.5(13) . . ?
O5 Si1 O4 113.8(13) . . ?
O8 Si1 O1 117.6(13) . . ?
O5 Si1 O1 105.5(10) . . ?
O4 Si1 O1 106.2(9) . . ?
O8 Si1 Al2 131.7(6) . . ?
O5 Si1 Al2 91.4(11) . . ?
O4 Si1 Al2 31.1(11) . . ?
O1 Si1 Al2 93.2(10) . . ?
O8 Si1 Sr1 51.7(5) . 3_666 ?
O5 Si1 Sr1 125.7(5) . 3_666 ?
O4 Si1 Sr1 49.9(10) . 3_666 ?
O1 Si1 Sr1 128.3(8) . 3_666 ?
Al2 Si1 Sr1 80.2(3) . 3_666 ?
O8 Si1 Sr1 114.8(8) . . ?
O5 Si1 Sr1 130.8(9) . . ?
O4 Si1 Sr1 69.5(5) . . ?
O1 Si1 Sr1 38.2(6) . . ?
Al2 Si1 Sr1 67.2(2) . . ?
Sr1 Si1 Sr1 94.96(19) 3_666 . ?
O8 Si1 Sr1 147.1(6) . 4_565 ?
O5 Si1 Sr1 38.9(8) . 4_565 ?
O4 Si1 Sr1 105.9(12) . 4_565 ?
O1 Si1 Sr1 71.6(10) . 4_565 ?
Al2 Si1 Sr1 75.0(3) . 4_565 ?
Sr1 Si1 Sr1 149.3(3) 3_666 4_565 ?
Sr1 Si1 Sr1 91.9(2) . 4_565 ?
O2 Si2 O6 116.3(13) . . ?
O2 Si2 O3 106.4(12) . . ?
O6 Si2 O3 108.5(13) . . ?
O2 Si2 O7 106.0(12) . . ?
O6 Si2 O7 111.3(9) . . ?
O3 Si2 O7 107.9(14) . . ?
O2 Si2 Sr1 113.9(7) . 4_566 ?
O6 Si2 Sr1 128.2(8) . 4_566 ?
O3 Si2 Sr1 67.5(6) . 4_566 ?
O7 Si2 Sr1 40.6(11) . 4_566 ?
O7 Al1 O1 105.0(10) 3_767 3_766 ?
O7 Al1 O2 113.9(12) 3_767 . ?
O1 Al1 O2 117.5(14) 3_766 . ?
O7 Al1 O3 113.8(12) 3_767 2_756 ?
O1 Al1 O3 101.7(9) 3_766 2_756 ?
O2 Al1 O3 104.6(10) . 2_756 ?
O7 Al1 Sr1 125.8(6) 3_767 . ?
O1 Al1 Sr1 128.6(8) 3_766 . ?
O2 Al1 Sr1 51.5(5) . . ?
O3 Al1 Sr1 53.5(8) 2_756 . ?
O7 Al1 Sr1 40.7(8) 3_767 2_756 ?
O1 Al1 Sr1 70.9(10) 3_766 2_756 ?
O2 Al1 Sr1 151.6(6) . 2_756 ?
O3 Al1 Sr1 99.5(10) 2_756 2_756 ?
Sr1 Al1 Sr1 146.4(3) . 2_756 ?
O7 Al1 Sr1 131.8(9) 3_767 3_766 ?
O1 Al1 Sr1 38.6(5) 3_766 3_766 ?
O2 Al1 Sr1 112.3(8) . 3_766 ?
O3 Al1 Sr1 65.9(6) 2_756 3_766 ?
Sr1 Al1 Sr1 93.94(18) . 3_766 ?
Sr1 Al1 Sr1 91.1(2) 2_756 3_766 ?
O6 Al2 O4 111.3(13) 4_465 . ?
O6 Al2 O5 111.7(9) 4_465 4_566 ?
O4 Al2 O5 107.0(15) . 4_566 ?
O6 Al2 O8 113.6(13) 4_465 2_645 ?
O4 Al2 O8 109.0(9) . 2_645 ?
O5 Al2 O8 103.7(11) 4_566 2_645 ?
O6 Al2 Si1 135.6(11) 4_465 . ?
O4 Al2 Si1 28.5(7) . . ?
O5 Al2 Si1 102.5(10) 4_566 . ?
O8 Al2 Si1 83.3(8) 2_645 . ?
O6 Al2 Sr1 132.0(8) 4_465 . ?
O4 Al2 Sr1 67.2(6) . . ?
O5 Al2 Sr1 40.2(11) 4_566 . ?
O8 Al2 Sr1 111.5(5) 2_645 . ?
Si1 Al2 Sr1 65.0(3) . . ?
Si1 O1 Al1 126.5(11) . 3_766 ?
Si1 O1 Sr1 117.7(8) . . ?
Al1 O1 Sr1 115.2(6) 3_766 . ?
Si2 O2 Al1 124.0(12) . . ?
Si2 O2 Sr1 136.4(13) . . ?
Al1 O2 Sr1 95.7(10) . . ?
Si2 O3 Al1 120.9(14) . 2_746 ?
Si2 O3 Sr1 142.3(8) . 2_746 ?
Al1 O3 Sr1 93.1(11) 2_746 2_746 ?
Si1 O4 Al2 120.4(16) . . ?
Si1 O4 Sr1 100.5(14) . 3_666 ?
Al2 O4 Sr1 136.5(9) . 3_666 ?
Si1 O5 Al2 126.3(15) . 4_565 ?
Si1 O5 Sr1 118.0(8) . 4_565 ?
Al2 O5 Sr1 113.0(16) 4_565 4_565 ?
Si2 O6 Al2 131.2(14) . 4_666 ?
Al1 O7 Si2 125.3(13) 3_767 . ?
Al1 O7 Sr1 114.0(9) 3_767 4_566 ?
Si2 O7 Sr1 114.1(15) . 4_566 ?
Si1 O8 Al2 129.9(10) . 2_655 ?
Si1 O8 Sr1 99.5(9) . 3_666 ?
Al2 O8 Sr1 130.2(12) 2_655 3_666 ?
loop_
_geom_bond_atom_site_label_1
_geom_bond_atom_site_label_2
_geom_bond_distance
_geom_bond_site_symmetry_2
_geom_bond_publ_flag
Sr1 O1 2.491(16) . ?
Sr1 O4 2.49(3) 3_666 ?
Sr1 O5 2.54(3) 4_566 ?
Sr1 O7 2.55(3) 4_565 ?
Sr1 O8 2.550(14) 3_666 ?
Sr1 O2 2.555(15) . ?
Sr1 O3 2.61(3) 2_756 ?
Sr1 Si1 3.204(9) 3_666 ?
Sr1 Al1 3.248(8) . ?
Sr1 Si1 3.566(6) . ?
Sr1 Al1 3.571(12) 2_746 ?
Sr1 Si1 3.572(13) 4_566 ?
Si1 O8 1.56(3) . ?
Si1 O5 1.59(3) . ?
Si1 O4 1.612(19) . ?
Si1 O1 1.644(14) . ?
Si1 Al2 2.914(16) . ?
Si2 O2 1.58(2) . ?
Si2 O6 1.588(15) . ?
Si2 O3 1.61(3) . ?
Si2 O7 1.676(17) . ?
Al1 O7 1.67(2) 3_767 ?
Al1 O1 1.765(17) 3_766 ?
Al1 O2 1.77(3) . ?
Al1 O3 1.789(18) 2_756 ?
Al2 O6 1.735(17) 4_465 ?
Al2 O4 1.75(3) . ?
Al2 O5 1.777(15) 4_566 ?
Al2 O8 1.83(2) 2_645 ?
