#------------------------------------------------------------------------------
#$Date: 2021-07-04 04:49:46 +0300 (Sun, 04 Jul 2021) $
#$Revision: 266973 $
#$URL: file:///home/coder/svn-repositories/cod/cif/1/56/31/1563152.cif $
#------------------------------------------------------------------------------
#
# This file is available in the Crystallography Open Database (COD),
# http://www.crystallography.net/
#
# All data on this site have been placed in the public domain by the
# contributors.
#
data_1563152
loop_
_publ_author_name
'Gorelova, Liudmila A.'
'Pakhomova, Anna S.'
'Krzhizhanovskaya, Maria G.'
'Pankin, Dmitrii V.'
'Krivovichev, Sergey V.'
'Dubrovinsky, Leonid S.'
'Kasatkin, Anatoly V.'
_publ_section_title
;
 Crystal Structure Evolution of Slawsonite SrAl2Si2O8 and Paracelsian
 BaAl2Si2O8 upon Compression and Decompression
;
_journal_issue                   23
_journal_name_full               'The Journal of Physical Chemistry C'
_journal_page_first              13014
_journal_page_last               13023
_journal_paper_doi               10.1021/acs.jpcc.1c02949
_journal_volume                  125
_journal_year                    2021
_chemical_formula_sum            'Al2 O8 Si2 Sr'
_chemical_formula_weight         325.76
_space_group_crystal_system      monoclinic
_space_group_IT_number           14
_space_group_name_Hall           '-P 2ybc'
_space_group_name_H-M_alt        'P 1 21/c 1'
_audit_creation_method           SHELXL-2018/3
_cell_angle_alpha                90
_cell_angle_beta                 90.177(4)
_cell_angle_gamma                90
_cell_formula_units_Z            4
_cell_length_a                   8.8272(3)
_cell_length_b                   8.735(2)
_cell_length_c                   6.8311(4)
_cell_measurement_reflns_used    914
_cell_measurement_temperature    293(2)
_cell_measurement_theta_max      20.494
_cell_measurement_theta_min      2.669
_cell_volume                     526.71(13)
_computing_structure_refinement  'SHELXL-2018/3 (Sheldrick, 2018)'
_diffrn_ambient_temperature      293(2)
_diffrn_measured_fraction_theta_full 0.354
_diffrn_measured_fraction_theta_max 0.198
_diffrn_measurement_device_type
'esperanto-CrysAlisPro-abstract goniometer imported esperanto images'
_diffrn_radiation_type           synchrotron
_diffrn_radiation_wavelength     0.41106
_diffrn_reflns_av_R_equivalents  0.0233
_diffrn_reflns_av_unetI/netI     0.1143
_diffrn_reflns_Laue_measured_fraction_full 0.354
_diffrn_reflns_Laue_measured_fraction_max 0.198
_diffrn_reflns_limit_h_max       14
_diffrn_reflns_limit_h_min       -14
_diffrn_reflns_limit_k_max       6
_diffrn_reflns_limit_k_min       -4
_diffrn_reflns_limit_l_max       9
_diffrn_reflns_limit_l_min       -9
_diffrn_reflns_number            914
_diffrn_reflns_point_group_measured_fraction_full 0.354
_diffrn_reflns_point_group_measured_fraction_max 0.198
_diffrn_reflns_theta_full        14.279
_diffrn_reflns_theta_max         20.494
_diffrn_reflns_theta_min         2.669
_exptl_absorpt_coefficient_mu    2.581
_exptl_crystal_colour            colorless
_exptl_crystal_density_diffrn    4.108
_exptl_crystal_density_meas      ?
_exptl_crystal_density_method    none
_exptl_crystal_description       isosymmetric
_exptl_crystal_F_000             624
_exptl_crystal_size_max          0.010
_exptl_crystal_size_mid          0.010
_exptl_crystal_size_min          0.005
_refine_diff_density_max         4.662
_refine_diff_density_min         -4.133
_refine_diff_density_rms         0.467
_refine_ls_extinction_coef       0.08(3)
_refine_ls_extinction_expression Fc^*^=kFc[1+0.001xFc^2^\l^3^/sin(2\q)]^-1/4^
_refine_ls_extinction_method     'SHELXL-2018/3 (Sheldrick 2018)'
_refine_ls_goodness_of_fit_ref   1.149
_refine_ls_hydrogen_treatment    undef
_refine_ls_matrix_type           full
_refine_ls_number_parameters     79
_refine_ls_number_reflns         539
_refine_ls_number_restraints     0
_refine_ls_restrained_S_all      1.149
_refine_ls_R_factor_all          0.2082
_refine_ls_R_factor_gt           0.1296
_refine_ls_shift/su_max          0.000
_refine_ls_shift/su_mean         0.000
_refine_ls_structure_factor_coef Fsqd
_refine_ls_weighting_details
'w=1/[\s^2^(Fo^2^)+(0.0168P)^2^+70.0000P] where P=(Fo^2^+2Fc^2^)/3'
_refine_ls_weighting_scheme      calc
_refine_ls_wR_factor_gt          0.2798
_refine_ls_wR_factor_ref         0.3443
_reflns_Friedel_coverage         0.000
_reflns_number_gt                366
_reflns_number_total             539
_reflns_threshold_expression     'I > 2\s(I)'
_cod_data_source_file            slav_p06.cif
_cod_data_source_block           shelx
_cod_depositor_comments
;
The following automatic conversions were performed:

data item '_exptl_crystal_density_meas' value 'none' was changed to
'?' -- the value is perceived as not measured.

Automatic conversion script
Id: cif_fix_values 7556 2019-12-06 15:28:31Z antanas 

 Adding full bibliography for 1563145--1563156.cif.
;
_cod_original_cell_volume        526.74(15)
_cod_original_sg_symbol_H-M      'P 21/c'
_cod_database_code               1563152
_shelx_shelxl_version_number     2018/3
_shelx_space_group_comment
;
The symmetry employed for this shelxl refinement is uniquely defined
by the following loop, which should always be used as a source of
symmetry information in preference to the above space-group names.
They are only intended as comments.
;
_shelx_res_file
;
TITL slav_p06_s1 in P2(1)/c
    shelx.res
    created by SHELXL-2018/3 at 13:39:17 on 19-Jan-2021
REM P2(1)/c (#14 in standard setting)
CELL 0.41106   8.827213   8.735433   6.831052  90.0000  90.1768  90.0000
ZERR    4.00   0.000347   0.002381   0.000427   0.0000   0.0044   0.0000
LATT  1
SYMM -x, y+1/2,-z+1/2
SFAC O Al Si Sr
DISP O 0.00165 0.00179 4.1539
DISP Si 0.026465 0.022605 52.36784
DISP Al 0.019188 0.016298 37.75624
DISP Sr 0.242892 1.295112 3000.317
UNIT 32.00 8.00 8.00 4.00

OMIT    -3   3   2
OMIT     9   2   5
OMIT    -4   4   4
OMIT     9   1   3
OMIT     8   1   5
OMIT    11   0   4
OMIT     9   3   6
OMIT    12   0   4
OMIT    11   1   2
OMIT     8   0   6
OMIT    10   4   0
OMIT    11   3   0
OMIT     9   1   4
OMIT     6   4   6
OMIT    10   2   1
OMIT    13   3   0
OMIT    -2   2   7
OMIT     6   3   8
OMIT     8   2   3
OMIT   -12   1   1
OMIT     9   1   5
OMIT     6   2   9
OMIT    12   2   3
OMIT     7   1   8
OMIT     7   3   8
OMIT    12   2   2
OMIT     8   1   7
OMIT     7   2   7

MERG   2
FMAP   2
PLAN   100
BOND
LIST   6
ACTA
REM DAMP 5000
L.S.  20
WGHT    0.016760   70.000000
EXTI    0.082895
FVAR       2.37962
SR1   4    0.750074    0.611573    0.269486    11.00000    0.02756    0.01735 =
         0.01985   -0.00029    0.00699    0.00110
SI1   3    0.584384    0.540850    0.778664    11.00000    0.02528    0.02893 =
         0.01378   -0.00016    0.00741    0.00714
SI2   3    1.074402    0.716471    0.502280    11.00000    0.02250    0.02577 =
         0.02232   -0.00856    0.00291   -0.00107
AL1   2    0.912184    0.529678    0.814443    11.00000    0.02321    0.07280 =
         0.01209    0.00091    0.00903    0.00493
AL2   2    0.408968    0.761074    1.013167    11.00000    0.01692    0.02934 =
         0.02603   -0.00106    0.00156    0.00198
O1    1    0.735170    0.603362    0.892747    11.00000    0.03350
O2    1    0.947033    0.370836    0.716533    11.00000    0.02594
O3    1    1.077533    0.899638    0.437295    11.00000    0.02338
O4    1    0.429183    0.597969    0.889038    11.00000    0.02244
O5    1    0.580768    0.638225    0.575852    11.00000    0.02202
O6    1    1.236204    0.655602    0.577172    11.00000    0.03725
O7    1    0.914952    0.646972    0.602141    11.00000    0.02483
O8    1    0.584737    0.362513    0.744686    11.00000    0.02343
HKLF 4




REM  slav_p06_s1 in P2(1)/c
REM wR2 = 0.3443, GooF = S = 1.149, Restrained GooF = 1.149 for all data
REM R1 = 0.1296 for 366 Fo > 4sig(Fo) and 0.2082 for all 539 data
REM 79 parameters refined using 0 restraints

END

WGHT      0.1552     39.8731

REM Highest difference peak  4.662,  deepest hole -4.133,  1-sigma level  0.467
Q1    1   0.6384  0.6121  0.2028  11.00000  0.05    4.66
Q2    1   0.8661  0.6224  0.3344  11.00000  0.05    4.43
Q3    1   0.4457  0.3827  0.8312  11.00000  0.05    2.03
Q4    1   0.7189  0.6193  0.1383  11.00000  0.05    1.77
Q5    1   1.1839  0.7096  0.5726  11.00000  0.05    1.68
Q6    1   1.0571  0.3607  0.6199  11.00000  0.05    1.68
Q7    1   0.6026  0.7209  0.2536  11.00000  0.05    1.41
Q8    1   1.0379  0.9692  0.3631  11.00000  0.05    1.39
Q9    1   1.1987  0.6464  0.5512  11.00000  0.05    1.35
Q10   1   0.4747  0.5267  0.7209  11.00000  0.05    1.35
Q11   1   1.2613  0.6755  0.6024  11.00000  0.05    1.31
Q12   1   0.3980  0.5415  0.7064  11.00000  0.05    1.29
Q13   1   0.5174  0.7212  0.5754  11.00000  0.05    1.29
Q14   1   0.5870  0.5791  0.5030  11.00000  0.05    1.28
Q15   1   0.6481  0.6183  0.3338  11.00000  0.05    1.27
Q16   1   0.7585  0.4703  0.1948  11.00000  0.05    1.26
Q17   1   0.7231  0.6274  0.2464  11.00000  0.05    1.26
Q18   1   0.7772  0.6182  0.4123  11.00000  0.05    1.22
Q19   1   0.7820  0.6318  0.2845  11.00000  0.05    1.21
Q20   1   0.8046  0.5372  0.7548  11.00000  0.05    1.16
Q21   1   0.3257  0.5135  0.8566  11.00000  0.05    1.14
Q22   1   0.5777  0.7847  0.6399  11.00000  0.05    1.10
Q23   1   0.8223  0.4930  0.7343  11.00000  0.05    1.07
Q24   1   1.3775  0.5215  0.5634  11.00000  0.05    1.06
Q25   1   0.8877  0.5624  0.6713  11.00000  0.05    1.06
Q26   1   0.6043  0.5966  0.9220  11.00000  0.05    1.05
Q27   1   0.9174  0.5918  0.9813  11.00000  0.05    1.04
Q28   1   1.2242  0.8192  0.6851  11.00000  0.05    1.04
Q29   1   1.1766  0.5470  0.6905  11.00000  0.05    1.03
Q30   1   0.9009  0.4993  0.2827  11.00000  0.05    1.02
Q31   1   1.0940  0.2769  0.7218  11.00000  0.05    1.02
Q32   1   1.2729  0.6260  0.5661  11.00000  0.05    1.00
Q33   1   0.8518  0.6268  0.2013  11.00000  0.05    0.97
Q34   1   0.7451  0.7234  1.0682  11.00000  0.05    0.95
Q35   1   0.7060  0.7042  0.2796  11.00000  0.05    0.95
Q36   1   0.8408  0.4634  0.7090  11.00000  0.05    0.95
Q37   1   1.2144  0.5750  0.5084  11.00000  0.05    0.95
Q38   1   1.1031  0.8196  0.3579  11.00000  0.05    0.94
Q39   1   1.2628  0.6390  0.7113  11.00000  0.05    0.93
Q40   1   0.9786  0.3118  0.7441  11.00000  0.05    0.92
Q41   1   0.6006  0.4134  0.6990  11.00000  0.05    0.91
Q42   1   0.5769  0.2913  0.7983  11.00000  0.05    0.90
Q43   1   0.7609  0.7771  0.2078  11.00000  0.05    0.90
Q44   1   1.1022  0.7215  0.6552  11.00000  0.05    0.88
Q45   1   1.0525  0.6303  0.6817  11.00000  0.05    0.86
Q46   1   1.0813  0.5355  0.6305  11.00000  0.05    0.86
Q47   1   0.5405  0.2869  0.6361  11.00000  0.05    0.86
Q48   1   0.4050  0.5377  0.8260  11.00000  0.05    0.85
Q49   1   0.7481  0.5280  0.1009  11.00000  0.05    0.85
Q50   1   0.7654  0.5354  0.5563  11.00000  0.05    0.83
Q51   1   0.7024  0.3548  0.7173  11.00000  0.05    0.83
Q52   1   0.9398  0.6974  0.4987  11.00000  0.05    0.82
Q53   1   0.7604  0.6027  0.9791  11.00000  0.05    0.81
Q54   1   1.0968  0.6827  0.5223  11.00000  0.05    0.80
Q55   1   0.9049  0.6228  0.5580  11.00000  0.05    0.80
Q56   1   0.5427  0.6433  0.7585  11.00000  0.05    0.80
Q57   1   0.4449  0.6431  0.9109  11.00000  0.05    0.79
Q58   1   0.7342  0.7259  0.8714  11.00000  0.05    0.79
Q59   1   0.5346  0.6154  0.8139  11.00000  0.05    0.78
Q60   1   0.4372  0.3951  0.7304  11.00000  0.05    0.78
Q61   1   0.5635  0.4752  0.6305  11.00000  0.05    0.78
Q62   1   1.0238  0.6882  0.5302  11.00000  0.05    0.77
Q63   1   0.9641  0.2483  0.7539  11.00000  0.05    0.76
Q64   1   1.2537  0.8368  0.4384  11.00000  0.05    0.76
Q65   1   0.9427  0.7463  0.5724  11.00000  0.05    0.75
Q66   1   0.9579  0.7578  0.4265  11.00000  0.05    0.74
Q67   1   0.6175  0.3667  0.6684  11.00000  0.05    0.74
Q68   1   0.8034  0.4749  0.8848  11.00000  0.05    0.74
Q69   1   0.7940  0.6231  0.6216  11.00000  0.05    0.73
Q70   1   0.9224  0.5849  0.5227  11.00000  0.05    0.73
Q71   1   0.8631  0.6374  0.4600  11.00000  0.05    0.73
Q72   1   1.1182  0.6044  0.5094  11.00000  0.05    0.73
Q73   1   0.5196  0.5885  0.4261  11.00000  0.05    0.72
Q74   1   1.3089  0.4988  0.5093  11.00000  0.05    0.72
Q75   1   0.5174  0.3837  0.7491  11.00000  0.05    0.72
Q76   1   1.2610  0.7586  0.4982  11.00000  0.05    0.71
Q77   1   0.9413  0.4131  0.8708  11.00000  0.05    0.71
Q78   1   0.7059  0.5671  0.8615  11.00000  0.05    0.71
Q79   1   1.0875  0.7602  0.5557  11.00000  0.05    0.70
Q80   1   0.7243  0.4192  0.8357  11.00000  0.05    0.70
Q81   1   0.7206  0.4541  0.9565  11.00000  0.05    0.70
Q82   1   0.6134  0.6070  0.8040  11.00000  0.05    0.69
Q83   1   1.1778  0.7078  0.4552  11.00000  0.05    0.69
Q84   1   0.8387  0.5779  0.9479  11.00000  0.05    0.69
Q85   1   1.2974  0.5384  0.5201  11.00000  0.05    0.69
Q86   1   0.4831  0.5174  0.8654  11.00000  0.05    0.69
Q87   1   0.9035  0.4757  0.7755  11.00000  0.05    0.68
Q88   1   0.8329  0.6913  0.8030  11.00000  0.05    0.68
Q89   1   1.1972  0.8590  0.3755  11.00000  0.05    0.67
Q90   1   1.1861  0.7620  0.7085  11.00000  0.05    0.67
Q91   1   0.5297  0.6420  0.9601  11.00000  0.05    0.66
Q92   1   0.8451  0.5470  0.4820  11.00000  0.05    0.66
Q93   1   0.5637  0.4662  0.8324  11.00000  0.05    0.66
Q94   1   0.8978  0.6326  0.8684  11.00000  0.05    0.65
Q95   1   0.7163  0.5802  0.8077  11.00000  0.05    0.65
Q96   1   1.1219  1.0044  0.3946  11.00000  0.05    0.64
Q97   1   0.9549  0.6841  0.7120  11.00000  0.05    0.64
Q98   1   1.1069  0.6668  0.4081  11.00000  0.05    0.63
Q99   1   0.6362  0.6453  1.0807  11.00000  0.05    0.63
Q100  1   1.3422  0.6860  0.6475  11.00000  0.05    0.63
;
_shelx_res_checksum              8859
_shelx_hkl_file
;
   0  -1  -3 3260.58 451.879   1
   0  -1  -4 21517.0 2853.12   1
   0  -1  -5 735.048 140.453   1
   0  -1  -6 3043.61 466.590   1
   0   2   3 173737. 22740.1   1
   0  -2  -4 3847.77 515.514   1
   0   2   4 3580.64 524.997   1
   0  -2  -5 12091.9 1612.29   1
   0  -2  -6 4361.24 608.930   1
   0  -2  -7 4202.20 597.760   1
   0  -2  -8 2917.86 432.364   1
   0   3   4 10445.0 1396.50   1
   0   3   5 15914.4 2122.69   1
   0   4   5 1133.56 188.087   1
   0   4   6 43092.9 5681.37   1
   0   5   6 42.5914 23.4505   1
   1   0   1-10.0449 10.1904   1
  -1   0  -1 7.17206 5.28084   1
  -1   0  -2 4279.49 561.750   1
   1   0   2 3719.71 559.283   1
  -1   0  -3 17.0846 25.7523   1
  -1  -1  -2 46291.8 6060.36   1
   1   1   2 45972.7 6064.80   1
   1   1   3 5345.72 709.555   1
  -1  -1  -3 4874.82 696.266   1
  -1  -1  -4 1450.12 239.948   1
  -1  -1  -5 9276.52 1273.63   1
  -1  -1  -6 2702.37 424.746   1
  -1  -1  -7 1463.27 267.112   1
   1  -2  -7 2838.33 407.941   1
   1  -2  -5 2153.83 299.706   1
   1   2   3 5069.48 699.206   1
  -1  -2  -4 2499.19 357.101   1
   1   2   4 2391.85 370.912   1
  -1  -2  -5 4291.23 594.574   1
   1   2   5 3982.98 621.514   1
  -1  -2  -6 14.5887 26.1070   1
  -1  -2  -7 9213.29 1263.58   1
  -1  -2  -8 63.5542 47.5584   1
   1   3   4 28676.9 3795.50   1
   1   3   5 1773.81 284.683   1
   1   3   6 1254.66 222.008   1
  -1   4   5 11.8705 8.60805   1
   1   4   5 1409.25 237.301   1
   1   4   6 3326.27 496.684   1
   1   4   7 672.708 141.102   1
  -1   5   6 134.706 44.9572   1
   1   5   6 97.9328 43.3583   1
   1   5   7 2018.18 329.400   1
  -2   0   0 170.497 42.4001   1
   2   0   0 235.095 45.4936   1
  -2   0  -1 8.23637 12.8123   1
   2   0   1-2.07946 7.23136   1
  -2   0  -2 36110.8 4751.76   1
   2   0   2 35788.9 4756.46   1
   2   0   3 10.6040 20.2365   1
  -2   0  -3 32.4714 44.3729   1
  -2   0  -4 785.550 175.869   1
  -2   0  -5-11.1022 44.8688   1
   2  -1  -1 472.451 88.1835   1
  -2   1   1 558.406 86.7846   1
  -2   1   0 6.08841 9.60619   1
   2  -1   0 14.0630 16.5174   1
   2   1   1 1637.67 255.898   1
   2  -1   1 1810.21 272.045   1
  -2   1  -1 1491.46 263.621   1
  -2  -1  -1 1804.66 253.603   1
  -2  -1  -2 2896.67 384.664   1
   2   1   2 2359.69 387.409   1
   2   1   3 12485.3 1692.42   1
  -2  -1  -3 12471.7 1682.30   1
  -2  -1  -4 57.5717 28.5447   1
   2   1   4 78.5836 34.8068   1
  -2  -1  -5 30380.4 4044.07   1
  -2  -1  -6 877.563 189.642   1
  -2  -1  -7 12808.6 1772.00   1
  -2  -1  -8 2977.85 483.656   1
   2  -2  -7 1254.39 181.850   1
   2   2   3 26134.1 3519.63   1
  -2  -2  -3 26794.0 3510.80   1
  -2  -2  -4 3066.39 474.159   1
   2   2   4 3619.22 496.366   1
   2   2   5 15045.5 2088.85   1
  -2  -2  -5 15579.3 2068.11   1
  -2  -2  -6 54.9208 41.1306   1
   2   2   6 61.3788 40.8348   1
  -2  -2  -7 1427.78 246.587   1
  -2  -2  -8 6868.34 980.853   1
   2   3   4-12.5249 25.0788   1
   2   3   5 156.045 60.3874   1
   2   3   6-23.9633 13.8115   1
  -2  -3  -7 92.9127 40.2964   1
   2   3   7 396.492 114.112   1
   2   4   5 286.862 81.2384   1
   2   4   6 1097.73 217.886   1
   2   4   7 140.000 67.8594   1
   2   5   6 4342.55 652.795   1
   2   5   7 307.733 96.0637   1
  -3   0   0 1972.06 261.819   1
   3   0   0 1468.41 258.393   1
  -3   0  -1-22.5347 21.9898   1
   3   0   1 15.1879 18.1121   1
  -3   0  -2 39693.9 5323.82   1
   3   0   2 40935.3 5336.45   1
   3   0   3 8.71338 15.1057   1
  -3   0  -3-5.13231 36.5958   1
   3   0   4 10090.6 1425.56   1
  -3   0  -4 10216.2 1421.46   1
  -3   0  -5 1.75283 18.3176   1
  -3   0  -6 329.161 112.526   1
   3  -1  -2 1441.08 214.197   1
  -3   1   1 113822. 14989.9   1
   3  -1  -1 115008. 14994.2   1
  -3   1   0 88877.0 11645.1   1
   3  -1   0 88513.4 11652.1   1
   3   1   1 109971. 14496.9   1
  -3  -1  -1 110640. 14495.8   1
   3  -1   1 110476. 14512.7   1
  -3   1  -1 110983. 14509.7   1
   3   1   2 4264.67 687.103   1
  -3   1  -2 5163.93 703.849   1
   3  -1   2 4481.88 707.976   1
  -3  -1  -2 5336.92 683.563   1
   3   1   3 71982.8 9425.11   1
  -3   1  -3 71280.2 9437.98   1
  -3  -1  -3 71216.6 9409.37   1
  -3  -1  -4 50030.1 6674.30   1
   3   1   4 51100.4 6696.36   1
   3   1   5 19125.0 2661.20   1
  -3  -1  -5 19897.1 2643.32   1
  -3  -1  -6 6.25826 19.4963   1
  -3  -1  -7 951.838 205.325   1
  -3  -1  -8 14105.6 1958.83   1
   3  -2  -3 6078.78 819.991   1
  -3   2   2 832.675 134.032   1
   3  -2  -2 860.503 144.148   1
  -3   2   1 5524.72 768.527   1
  -3   2   0 837.803 162.086   1
  -3  -2  -3 3795.39 570.731   1
   3   2   3 4088.15 579.855   1
  -3  -2  -4 4307.88 610.426   1
   3   2   4 4025.94 626.021   1
   3   2   5 59964.1 7850.85   1
  -3  -2  -5 58804.7 7820.49   1
  -3  -2  -6 1544.11 258.982   1
   3   2   6 1336.88 279.493   1
  -3  -2  -7 4350.70 653.856   1
  -3  -2  -8 204.422 93.3894   1
  -3   3   3 1055.16 164.693   1
  -3   3   2 18431.8 2450.19   1
   3   3   4 74.0424 43.4021   1
   3   3   5 13166.3 1817.20   1
  -3  -3  -6 28349.1 3785.57   1
   3   3   6 28378.9 3815.21   1
  -3  -3  -7 6907.59 909.575   1
   3   3   7 5317.30 919.671   1
  -3  -3  -8 939.316 189.303   1
   3   4   5 1054.87 215.769   1
   3   4   6 15033.3 2070.55   1
   3   4   7 10411.9 1477.84   1
   3   4   8 9708.02 1391.25   1
   3   5   7 2771.79 472.984   1
   4   0  -1-11.3665 20.2545   1
   4   0   0 7560.76 1036.57   1
  -4   0   0 7468.60 1033.32   1
  -4   0  -1 14.9458 9.46554   1
   4   0   1-13.5407 30.6202   1
   4   0   2 37193.6 5103.64   1
  -4   0  -2 39327.2 5089.08   1
   4   0   3-27.9516 34.0971   1
  -4   0  -3-17.6557 30.9400   1
   4   0   4 6829.84 970.811   1
  -4   0  -4 6285.96 949.399   1
   4   0   5 2.29172 40.2847   1
  -4   0  -5 62.4727 41.9067   1
  -4   0  -6 6097.74 925.773   1
  -4   0  -7-31.3636 63.0484   1
   4  -1  -3 17467.4 2319.26   1
   4  -1  -2 3519.46 499.980   1
  -4   1   1 263.098 53.3339   1
   4  -1  -1 162.522 52.6514   1
   4  -1   0 2.34182 22.8242   1
  -4   1   0-16.2157 24.3171   1
   4  -1   1 2315.12 326.777   1
  -4  -1  -1 1714.23 301.545   1
   4   1   1 1637.44 304.633   1
  -4   1  -1 2134.59 314.977   1
  -4  -1  -2 643.698 129.391   1
   4   1   2 505.855 126.235   1
  -4   1  -2 718.459 154.924   1
   4  -1   2 471.848 141.035   1
   4   1   3 3005.00 436.857   1
   4  -1   3 2360.10 439.143   1
  -4   1  -3 2126.77 426.378   1
  -4  -1  -3 2774.02 413.016   1
  -4   1  -4 6869.64 1058.91   1
   4   1   4 6692.62 1042.57   1
  -4  -1  -4 7779.54 1033.58   1
  -4  -1  -5 1871.45 324.452   1
   4   1   5 1805.79 333.040   1
  -4  -1  -6 1240.58 252.557   1
   4   1   6 1267.32 266.796   1
  -4  -1  -7 6708.19 993.841   1
  -4  -1  -8 1320.16 275.609   1
   4  -2  -4 1707.31 256.564   1
   4  -2  -3 40360.8 5315.76   1
   4  -2  -2 10712.6 1451.68   1
  -4   2   2 10715.9 1441.73   1
  -4   2   1 55751.3 7359.17   1
   4  -2  -1 55994.3 7368.33   1
  -4   2   0 747.430 149.751   1
   4  -2   0 676.616 151.128   1
  -4   2  -1 35853.2 4767.95   1
   4  -2   1 35782.4 4777.36   1
  -4  -2  -3 26453.5 3493.12   1
   4   2   3 25770.3 3504.90   1
   4   2   4 2493.73 427.412   1
  -4  -2  -4 2662.91 412.152   1
   4   2   5 9606.40 1477.93   1
  -4  -2  -5 10836.9 1444.38   1
   4   2   6 216.640 81.9382   1
  -4  -2  -6 136.834 71.0459   1
   4   2   7 4702.71 850.992   1
  -4  -2  -7 5941.03 819.962   1
  -4  -2  -8 121.550 57.4953   1
  -4  -2  -9 376.015 123.278   1
  -4   3   3 8.70790 15.0218   1
  -4   3   2 258.181 61.9669   1
  -4   3   1 1024.58 194.317   1
   4   3   4 8114.75 1159.27   1
   4   3   5 248.880 95.4733   1
  -4  -3  -6 3904.20 587.199   1
   4   3   6 3690.02 619.657   1
   4   3   7 5093.33 835.914   1
  -4  -3  -7 5564.55 799.436   1
  -4  -3  -8 3173.29 476.032   1
   4   3   8 2392.38 489.227   1
  -4  -3  -9 505.213 148.614   1
  -4   4   4 13929.0 1844.48   1
  -4   4   3 12204.0 1646.17   1
   4   4   5 8050.00 1163.76   1
   4   4   6 1270.32 273.683   1
   4   4   7 395.421 134.583   1
   4   4   8 1732.33 335.418   1
  -4   5   4 3582.84 505.101   1
   5   0  -1 14.1309 36.0856   1
  -5   0   0 1386.59 246.499   1
   5   0   0 1567.54 251.594   1
  -5   0  -1-24.4815 30.4800   1
   5   0   1 15.3038 29.7958   1
   5   0   2 3838.90 704.072   1
  -5   0  -2 5249.60 690.037   1
  -5   0  -3 16.4806 27.3770   1
   5   0   3 25.0801 35.6167   1
   5   0   4 26011.2 3498.10   1
  -5   0  -4 25485.0 3472.14   1
  -5   0  -5 45.1482 65.9495   1
   5   0   5 39.8823 57.8560   1
  -5   0  -6 20090.5 2768.51   1
  -5   0  -7 15.6418 63.3860   1
   5  -1  -3 5980.40 830.829   1
   5  -1  -2 17957.6 2404.09   1
   5  -1  -1 11472.3 1587.73   1
  -5   1   1 11738.9 1577.36   1
  -5   1   0 1369.37 248.216   1
   5  -1   0 1544.63 260.902   1
   5  -1   1 1506.61 295.737   1
   5   1   1 1663.82 289.322   1
  -5   1  -1 1558.46 289.803   1
  -5  -1  -1 1778.33 280.451   1
  -5   1  -2 32016.6 4285.97   1
   5  -1   2 31861.3 4303.05   1
  -5  -1  -2 32562.4 4268.83   1
   5   1   2 31576.2 4281.95   1
  -5  -1  -3 4026.00 566.005   1
  -5   1  -3 3593.22 585.695   1
   5   1   3 3255.94 576.102   1
   5  -1   3 3734.91 603.507   1
   5   1   4-2.28295 32.0307   1
  -5   1  -4-8.84581 69.6809   1
  -5  -1  -4 78.9096 46.4214   1
   5   1   5 6875.29 1022.87   1
  -5   1  -5 6470.24 1020.58   1
  -5  -1  -5 6835.71 990.359   1
  -5  -1  -6 12526.5 1691.24   1
   5   1   6 11118.2 1719.34   1
  -5  -1  -7 3043.31 516.462   1
  -5  -1  -8-2.47904 11.4462   1
   5  -2  -6 3.32672 10.1415   1
   5  -2  -5 1192.63 194.319   1
   5  -2  -4 1650.33 256.934   1
   5  -2  -3 2072.39 323.698   1
   5  -2  -2 58.1474 39.9454   1
  -5   2   2 5.17083 16.0937   1
   5  -2  -1 63.5156 28.2145   1
  -5   2   1 48.0755 29.5725   1
  -5   2   0 827.148 168.947   1
   5  -2   0 826.320 184.695   1
   5  -2   1 618.667 154.399   1
  -5   2  -1 820.495 175.867   1
   5  -2   2 2710.59 454.338   1
  -5   2  -2 2470.27 444.609   1
   5   2   3 2721.89 443.555   1
  -5  -2  -3 2588.34 424.725   1
   5   2   4 4311.38 703.136   1
  -5  -2  -4 4657.29 682.038   1
   5   2   5 223.501 93.3608   1
  -5  -2  -5 334.561 93.6180   1
   5   2   6 3932.17 693.439   1
  -5  -2  -6 4528.69 666.442   1
  -5  -2  -7 5319.08 828.409   1
   5   2   7 5727.41 886.821   1
  -5  -2  -8 2943.10 503.476   1
  -5  -2  -9 2939.96 509.997   1
  -5   3   3 2745.92 399.950   1
  -5   3   2 10069.4 1375.59   1
  -5   3   1 7410.51 1045.74   1
  -5   3   0 38005.9 5070.80   1
   5   3   4 18982.3 2603.11   1
   5   3   5 4629.30 724.388   1
  -5  -3  -6 596.624 150.572   1
   5   3   6 371.868 148.406   1
   5   3   7 459.802 172.231   1
  -5  -3  -7 219.568 95.9172   1
  -5  -3  -8 2724.51 453.423   1
   5   3   8 2534.68 493.457   1
  -5  -3  -9-43.5785 46.9292   1
  -5   4   4 3657.12 512.839   1
  -5   4   3 12.6290 11.3888   1
  -5   4   2 867.255 176.311   1
   5   4   6 1301.05 273.603   1
   5   4   7 650.059 187.584   1
   5   4   8 2546.03 470.445   1
  -5   5   4 625.724 115.930   1
  -5   6   5 1146.23 178.098   1
   6   0  -1-9.63905 28.8686   1
   6   0   0 320374. 41595.0   1
  -6   0   0 314750. 41586.1   1
   6   0   1 1.84656 14.7012   1
  -6   0  -1-1.49797 13.2926   1
   6   0   2 17647.8 2390.94   1
  -6   0  -2 17133.1 2365.81   1
  -6   0  -3-32.5893 18.6201   1
   6   0   3 27.2515 50.1025   1
  -6   0  -4 55193.6 7299.89   1
   6   0   4 54394.5 7336.58   1
  -6   0  -5 9.28008 47.0434   1
   6   0   5-214.417 97.7623   1
   6   0   6 7336.53 1168.27   1
  -6   0  -6 7592.85 1123.50   1
  -6   0  -7 219.029 127.247   1
   6  -1  -3 439.190 104.646   1
   6  -1  -2 86.8188 48.9563   1
   6  -1  -1 31.2625 27.8129   1
  -6   1   1-30.7369 39.3520   1
   6  -1   0 5470.78 852.054   1
  -6   1   0 6042.85 836.563   1
   6   1   1 87.1195 55.1035   1
  -6   1  -1-32.3300 52.1605   1
  -6  -1  -1-9.06848 6.98923   1
   6  -1   1 53.1404 52.7146   1
   6  -1   2 2633.03 470.990   1
  -6   1  -2 2417.46 442.797   1
   6   1   2 2417.73 446.748   1
  -6  -1  -2 3091.97 438.624   1
  -6   1  -3 3833.01 623.864   1
   6  -1   3 4163.39 666.860   1
   6   1   3 3570.47 639.090   1
  -6  -1  -3 4314.66 623.357   1
  -6  -1  -4 4677.25 639.586   1
  -6   1  -4 3623.35 651.633   1
   6   1   4 4049.21 678.588   1
   6  -1   4 3449.36 658.598   1
  -6   1  -5 46.1080 58.4092   1
   6   1   5 14.4813 46.0886   1
  -6  -1  -5 110.801 43.1920   1
   6   1   6 3356.89 636.527   1
  -6  -1  -6 4040.56 622.561   1
   6   1   7 434.382 166.884   1
  -6  -1  -7 266.782 110.156   1
  -6  -1  -8 3672.27 623.876   1
   6  -2  -6 1189.57 199.021   1
   6  -2  -5 4537.78 644.560   1
   6  -2  -4 742.628 140.311   1
   6  -2  -3 54609.6 7212.85   1
  -6   2   2 30721.6 3975.55   1
   6  -2  -2 28813.1 3992.29   1
  -6   2   1 4162.13 623.512   1
   6  -2  -1 4331.83 643.329   1
   6  -2   0 385.794 121.076   1
  -6   2   0 709.495 147.445   1
  -6   2  -1 9932.24 1405.36   1
   6  -2   1 9881.34 1420.11   1
   6  -2   2 36800.6 4915.66   1
  -6   2  -2 36152.0 4894.21   1
   6   2   3 53381.2 7005.86   1
  -6   2  -3 52605.6 7023.29   1
   6  -2   3 52322.8 7038.30   1
  -6  -2  -3 52100.9 6983.40   1
   6   2   4 2009.88 378.999   1
  -6  -2  -4 1824.69 338.359   1
   6   2   5 10198.1 1534.93   1
  -6  -2  -5 10786.4 1496.15   1
  -6  -2  -6 3716.56 586.272   1
   6   2   6 3486.47 623.477   1
   6   2   7 5100.24 785.326   1
  -6  -2  -7 4292.34 705.320   1
  -6  -2  -8 2933.24 479.338   1
   6   2   8 2193.57 511.610   1
  -6  -2  -9 6503.67 996.945   1
   6  -3  -4 3399.22 503.865   1
  -6   3   3 5030.01 696.093   1
   6  -3  -3 4758.27 722.081   1
  -6   3   2 18041.4 2455.32   1
   6  -3  -2 18576.1 2481.26   1
  -6   3   1 14536.2 2013.81   1
   6  -3  -1 15001.8 2037.20   1
  -6   3   0-19.5345 67.8769   1
   6  -3   0-12.5423 18.6300   1
  -6   3  -1 8907.77 1289.01   1
   6   3   4 9994.51 1443.37   1
   6   3   5 10309.9 1497.26   1
  -6  -3  -6 6737.86 992.989   1
   6   3   6 6483.38 1031.22   1
   6   3   7 4940.86 786.868   1
  -6  -3  -7 4584.59 732.404   1
   6   3   8 7825.84 1294.55   1
  -6  -3  -8 8873.56 1244.92   1
   6   3   9 2606.99 565.244   1
  -6  -3  -9 3273.81 532.906   1
  -6   4   4 452.156 100.896   1
  -6   4   3 478.757 106.311   1
  -6   4   2 20600.4 2774.86   1
  -6   4   1 5.10777 23.0750   1
   6   4   6 35497.1 4810.50   1
   6   4   7 107.665 82.4914   1
   6   4   8 520.575 182.256   1
   6   4   9 105.125 77.3961   1
  -6   5   4 271.542 69.3645   1
  -6   5   3 11434.6 1569.83   1
   7   0  -1 26.6166 19.9422   1
   7   0   0-52.3806 62.0135   1
  -7   0   0 35.8475 36.9273   1
   7   0   1 65.7571 61.6126   1
  -7   0  -1 85.6349 92.6853   1
   7   0   2 1078.44 281.695   1
  -7   0  -2 1780.91 295.555   1
   7   0   3 5.74441 58.2528   1
  -7   0  -3 50.6238 76.5020   1
   7   0   4 9647.19 1474.66   1
  -7   0  -4 10243.8 1445.39   1
   7   0   5-73.3999 83.8569   1
  -7   0  -5-131.727 103.175   1
  -7   0  -6 4666.54 759.098   1
   7   0   6 4438.98 788.984   1
  -7   0  -7 53.1041 39.5054   1
   7  -1  -3 6999.50 988.312   1
   7  -1  -2 16762.0 2289.13   1
   7  -1  -1 5377.73 817.469   1
  -7   1   1 5687.60 809.092   1
  -7   1   0 8310.06 1142.21   1
   7  -1   0 7684.43 1157.30   1
   7   1   1 2337.87 402.101   1
  -7  -1  -1 2076.43 382.010   1
   7  -1   1 2242.21 416.788   1
  -7   1  -1 2504.08 400.533   1
  -7   1  -2 27015.4 3585.70   1
   7   1   2 26250.6 3598.74   1
   7  -1   2 26909.1 3620.78   1
  -7  -1  -2 25910.2 3577.65   1
  -7   1  -3 4987.46 827.477   1
  -7  -1  -3 5328.92 818.935   1
   7   1   3 6372.11 866.982   1
   7  -1   3 5145.02 858.658   1
  -7   1  -4 1772.26 348.475   1
   7  -1   4 1816.67 392.226   1
  -7  -1  -4 1722.68 343.196   1
   7   1   4 1954.99 383.593   1
  -7  -1  -5 7739.66 1147.63   1
   7   1   5 8707.25 1215.75   1
  -7   1  -5 7288.96 1167.36   1
   7  -1   5 7195.43 1212.63   1
  -7   1  -6 1791.11 411.523   1
   7   1   6 2130.11 444.847   1
  -7  -1  -6 2392.72 404.654   1
  -7  -1  -7 1138.11 273.596   1
   7   1   7 1689.89 348.913   1
  -7  -1  -8 2946.35 599.312   1
  -7  -1  -9-3.26774 0.42725   1
   7  -2  -5 4088.66 604.334   1
   7  -2  -4 6206.90 889.924   1
   7  -2  -3 1246.18 230.030   1
  -7   2   2 676.490 142.477   1
   7  -2  -2 646.101 147.488   1
   7  -2  -1-82.7679 44.0511   1
  -7   2   1 51.3646 46.9240   1
  -7   2   0 1083.84 222.422   1
   7  -2   0 958.445 227.295   1
  -7   2  -1 19.9775 9.81440   1
   7  -2   1-112.510 88.9969   1
   7  -2   2 1020.49 275.672   1
  -7   2  -2 1460.96 288.952   1
   7   2   3 2531.32 477.335   1
   7  -2   3 2504.30 498.022   1
  -7   2  -3 2909.18 491.341   1
  -7  -2  -3 2613.58 443.543   1
  -7   2  -4 367.525 154.903   1
   7   2   4 293.018 148.242   1
  -7  -2  -5 2955.79 498.896   1
   7   2   5 2573.86 522.350   1
   7   2   6-103.123 102.890   1
  -7  -2  -6-60.1860 63.8598   1
   7   2   7 7504.99 1286.70   1
  -7  -2  -7 8487.83 1214.41   1
   7   2   8-62.4585 109.832   1
  -7  -2  -8 34.2018 71.9030   1
  -7  -2  -9-3.02851 0.39598   1
   7  -3  -4 14138.5 1930.52   1
   7  -3  -3 8251.83 1171.56   1
  -7   3   3 8168.44 1140.63   1
  -7   3   2 10727.9 1428.92   1
   7  -3  -2 9623.88 1450.20   1
  -7   3   1 22031.9 2983.68   1
   7  -3  -1 22212.8 3019.72   1
  -7   3   0 43986.3 5941.01   1
   7  -3   0 45249.1 5967.48   1
   7  -3   1 5292.20 875.092   1
  -7   3  -1 5951.75 876.976   1
  -7   3  -2 8577.36 1271.78   1
   7   3   5 1721.51 354.980   1
   7   3   6 562.433 201.887   1
  -7  -3  -7 1090.94 224.777   1
   7   3   7 787.981 272.740   1
  -7  -3  -8 4560.21 732.415   1
   7   3   8 4323.91 758.455   1
  -7  -3  -9-2.87845 0.43329   1
   7   3   9-4.27377 0.43329   1
  -7   4   4 1019.21 173.963   1
  -7   4   3 1599.08 271.026   1
  -7   4   2 130.161 56.4486   1
  -7   4   1 357.516 125.802   1
  -7   4   0 91.2238 73.9551   1
   7   4   7 1125.03 317.872   1
   7   4   8 3555.18 652.965   1
  -7   5   4 2563.88 388.602   1
  -7   5   3 28009.8 3742.59   1
  -7   5   2 304.711 109.838   1
  -7   6   4 4.53093 18.3553   1
   8   0  -1-3.92274 36.6693   1
  -8   0   0 281.747 101.034   1
   8   0   0 349.626 111.700   1
   8   0   1 7.71437 32.3965   1
  -8   0  -1 66.0532 51.6589   1
  -8   0  -2 17053.7 2381.32   1
   8   0   2 17415.5 2423.50   1
  -8   0  -3-9.73473 35.5638   1
   8   0   3 19.8670 46.7089   1
   8   0   4 1021.39 284.618   1
  -8   0  -4 913.366 251.422   1
   8   0   5-59.6485 144.012   1
  -8   0  -5-32.5207 71.0813   1
  -8   0  -6 10200.6 1555.43   1
   8   0   6 11125.0 1642.38   1
  -8   0  -7-3.48756 0.45600   1
  -8   0  -8-3.76857 0.49274   1
   8  -1  -3 1664.47 298.914   1
   8  -1  -2 23.0854 52.9358   1
   8  -1  -1 32.0200 40.9155   1
  -8   1   1 24.2090 29.6199   1
   8  -1   0 212.670 95.5138   1
  -8   1   0 166.417 80.7728   1
   8   1   1 1382.52 300.384   1
   8  -1   1 1783.43 342.295   1
  -8   1  -1 1625.68 303.550   1
   8  -1   2 663.222 163.248   1
   8   1   2 2.78436 68.2068   1
  -8  -1  -2 139.049 84.2014   1
  -8   1  -2 693.518 182.920   1
  -8   1  -3 5419.31 857.977   1
   8  -1   3 5599.56 911.782   1
   8   1   3 5415.47 898.540   1
  -8  -1  -3 5534.44 854.375   1
  -8   1  -4 1981.57 396.691   1
   8  -1   4 1975.20 420.192   1
  -8  -1  -4 1864.09 346.537   1
   8   1   4 1891.63 417.220   1
  -8  -1  -5 13954.5 1932.67   1
  -8   1  -5 13042.0 1951.45   1
   8   1   5 14175.9 2002.87   1
   8  -1   5 13018.7 2000.65   1
  -8   1  -6 135.332 88.0006   1
  -8  -1  -6 176.841 98.4267   1
   8   1   7-4.58626 0.47367   1
  -8  -1  -7-3.16414 0.47367   1
   8   1   8-4.90695 0.50761   1
  -8  -1  -8-3.39254 0.50761   1
  -8  -1  -9-3.62773 1.01330   1
   8  -2  -5 8256.85 1164.49   1
   8  -2  -4 2422.43 400.548   1
   8  -2  -3 10561.4 1489.57   1
  -8   2   2 80.2540 46.8205   1
   8  -2  -2 22.9233 68.1608   1
   8  -2  -1 19731.8 2871.66   1
  -8   2   1 21883.9 2845.51   1
   8  -2   0 1310.09 260.848   1
  -8   2   0 1280.97 254.424   1
  -8   2  -1 19973.2 2798.45   1
   8  -2   1 21173.2 2841.45   1
   8  -2   2 2186.65 447.457   1
  -8   2  -2 2237.47 417.591   1
  -8   2  -3 7883.42 1205.06   1
   8   2   3 7862.72 1210.72   1
   8  -2   3 8327.47 1263.08   1
  -8   2  -4 1287.81 302.552   1
  -8  -2  -4 1173.75 280.377   1
   8   2   4 1104.48 301.421   1
   8  -2   4 1475.31 350.054   1
  -8  -2  -5 6516.06 986.080   1
   8   2   5 6215.79 1037.38   1
   8   2   6 57.1659 71.3685   1
  -8  -2  -6-46.7178 60.2202   1
  -8  -2  -7-3.07399 0.45936   1
   8   2   7-4.42273 0.45936   1
  -8  -2  -8-3.26798 0.49005   1
   8   2   8-4.77136 0.49005   1
  -8  -2  -9-3.46638 0.98526   1
   8  -3  -5-28.2780 13.9995   1
   8  -3  -4 4686.58 709.676   1
  -8   3   3 850.553 178.805   1
   8  -3  -3 964.387 196.803   1
  -8   3   2 428.686 110.966   1
   8  -3  -2 374.652 114.042   1
  -8   3   1 2282.22 395.228   1
   8  -3  -1 2342.05 429.044   1
  -8   3   0 864.342 219.361   1
   8  -3   0 1141.66 250.100   1
   8  -3   1-27.6373 62.4940   1
  -8   3  -1-71.3635 59.3740   1
   8  -3   2 1408.93 354.912   1
  -8   3  -2 1637.98 359.710   1
   8   3   5-96.6359 83.3289   1
   8   3   6 365.845 207.428   1
   8   3   7-4.31590 0.56430   1
   8   3   8-4.63936 0.60659   1
   8   3   9-4.90301 1.34498   1
  -8   4   3 1444.43 253.341   1
  -8   4   2 8453.75 1201.86   1
  -8   4   1 5940.51 892.774   1
  -8   4   0 16695.6 2323.30   1
  -8   5   4 161.388 66.3764   1
  -8   5   3 163.412 74.1167   1
  -8   5   2 717.873 155.612   1
   9   0   0 1703.14 355.660   1
   9   0   1 30.2741 54.0583   1
  -9   0  -1-4.80196 29.8037   1
  -9   0  -2 6219.47 918.191   1
   9   0   2 5441.73 955.557   1
  -9   0  -3-35.2367 48.8682   1
   9   0   3-365.358 160.119   1
   9   0   4 6466.44 1072.26   1
  -9   0  -4 6774.50 1033.36   1
  -9   0  -5-3.25800 0.42598   1
   9   0   6-4.96656 0.52748   1
  -9   0  -6-3.55628 0.52748   1
   9   0   7-5.37367 1.37280   1
  -9   0  -7-3.83944 1.02918   1
  -9   0  -8-4.14029 1.10396   1
   9  -1  -2-4.55087 33.3917   1
   9  -1  -1 29781.5 4217.42   1
  -9   1   1 32221.8 4194.99   1
   9  -1   0 17634.8 2550.27   1
  -9   1   0 18790.8 2519.92   1
  -9   1  -1 29689.5 4010.07   1
   9  -1   1 29380.1 4054.84   1
   9  -1   2 111.536 75.1076   1
   9   1   2 187.007 93.4696   1
  -9  -1  -2 336.971 136.717   1
  -9   1  -2 331.874 124.012   1
  -9   1  -3 22543.9 3034.17   1
   9   1   3 20838.2 3065.12   1
   9  -1   3 20793.8 3077.64   1
  -9  -1  -3 22621.9 3022.49   1
  -9   1  -4 14676.1 2167.70   1
   9   1   4 15268.0 2221.13   1
   9  -1   4 16004.7 2235.40   1
  -9  -1  -4 15253.4 2153.91   1
   9   1   5 12470.9 976.163   1
  -9  -1  -5 9127.44 667.183   1
  -9   1  -6-3.78057 0.52148   1
   9   1   6-4.78789 0.52148   1
  -9  -1  -6-3.29586 0.52148   1
   9  -1   6-5.13172 0.52148   1
  -9  -1  -7 4246.84 510.130   1
   9   1   7 36.5949 134.251   1
   9   1   8-5.59133 1.43334   1
  -9  -1  -8-3.77797 1.10104   1
  -9  -1  -9-4.03403 1.12678   1
   9  -2  -4 5906.06 881.980   1
   9  -2  -3 2152.48 380.405   1
  -9   2   2 143.909 79.1823   1
   9  -2  -2-24.5670 90.2052   1
   9  -2  -1 99.4778 85.3525   1
  -9   2   1 62.7958 80.8025   1
   9  -2   0 1922.70 371.891   1
  -9   2   0 1596.77 317.473   1
   9  -2   1 296.313 81.5077   1
  -9   2  -1 501.125 152.635   1
  -9   2  -2 2460.92 469.509   1
   9  -2   2 2549.36 527.514   1
  -9   2  -3 1780.10 288.855   1
   9  -2   3-377.180 306.871   1
  -9   2  -4 112.782 101.102   1
  -9  -2  -4 200.336 89.7019   1
   9   2   4 88.9912 97.6819   1
   9  -2   4 17.8131 110.718   1
  -9   2  -5-3.63296 0.43058   1
  -9  -2  -5-3.05319 0.43058   1
   9   2   6-4.66849 0.48885   1
  -9  -2  -6-3.27993 0.48885   1
   9   2   7 5.05543 27.7092   1
  -9  -2  -7 10.4508 33.0652   1
   9   2   8-5.45266 1.44423   1
  -9  -2  -8-3.74978 1.02734   1
  -9  -2  -9-3.91768 1.18690   1
   9   2   9-5.75621 1.59634   1
   9  -3  -4 455.613 137.006   1
  -9   3   3 1127.44 206.794   1
   9  -3  -3 801.516 203.147   1
  -9   3   2 12063.2 1654.39   1
   9  -3  -2 11556.3 1699.12   1
   9  -3  -1 613.483 200.674   1
  -9   3   1 899.453 199.920   1
  -9   3   0 532.768 150.310   1
   9  -3   0 324.261 152.225   1
  -9   3  -1 1120.18 248.285   1
   9  -3   1 1108.31 305.660   1
  -9   3  -2 14264.9 2088.04   1
   9  -3   2 15352.7 2138.33   1
  -9   3  -3-97.8608 94.4622   1
   9   3   6-4.69130 0.61338   1
   9   3   7-19.7564 54.1735   1
   9   3   8-5.31330 1.47088   1
   9   3   9-5.61425 1.64955   1
  -9   4   3 7042.88 1009.83   1
  -9   4   2 18767.6 2563.26   1
  -9   4   1 173.588 62.0168   1
  -9   4   0 258.533 101.294   1
  -9   4  -1-81.2953 54.1481   1
  -9   5   4 2277.16 367.186   1
  -9   5   3 6424.50 931.998   1
  -9   5   2 14576.9 2024.49   1
  -9   5   1 8142.42 1201.37   1
  10   0   0 3157.83 575.502   1
 -10   0  -1-58.7821 74.3059   1
  10   0   1-7.02728 49.8759   1
  10   0   2 11787.6 1846.38   1
 -10   0  -2 12852.6 1797.74   1
 -10   0  -3 103.582 108.762   1
  10   0   3 8.67976 83.4533   1
  10   0   4-4.65864 0.49159   1
 -10   0  -4-3.30692 0.49159   1
  10   0   5-5.15089 0.53565   1
 -10   0  -5-3.58589 0.53565   1
  10   0   6-5.64210 1.37373   1
 -10   0  -6-3.92911 0.99282   1
  10   0   7-6.10395 1.50268   1
 -10   0  -7-4.23476 1.13787   1
 -10   0  -8-4.56060 1.27387   1
  10  -1  -2 2686.20 480.160   1
  10  -1  -1 97.6007 24.5477   1
 -10   1   0 89.5613 110.436   1
  10  -1   0-123.564 123.643   1
 -10   1  -1 255.562 117.695   1
  10  -1   1 95.6760 84.0346   1
  10  -1   2-83.4311 15.0681   1
  10   1   2 234.753 155.451   1
 -10   1  -2 98.2269 105.277   1
 -10  -1  -3 364.716 147.348   1
  10   1   3 317.559 140.975   1
 -10   1  -3 179.434 149.736   1
  10  -1   4-4.84347 0.50708   1
 -10  -1  -4-3.34722 0.50708   1
  10   1   4-4.67935 0.50708   1
 -10   1  -4-3.50544 0.50708   1
  10   1   5-4.98409 0.55174   1
 -10  -1  -5-3.53394 0.55174   1
  10  -1   5-5.32106 0.55174   1
 -10   1  -5-3.86456 0.55174   1
 -10   1  -6-4.22096 1.05461   1
  10   1   6-5.45238 1.32174   1
 -10  -1  -6-3.74809 1.01403   1
  10  -1   6-5.80416 1.43991   1
  10   1   7-5.95321 1.53998   1
 -10  -1  -7-3.97844 1.09196   1
 -10   1  -7-4.58233 1.21012   1
 -10  -1  -8-4.25271 1.17814   1
  10   1   8-6.37019 1.63061   1
  10  -2  -4 314.917 109.613   1
  10  -2  -3 13164.2 1867.10   1
  10  -2  -2 2539.29 466.367   1
  10  -2  -1 20406.0 2982.33   1
 -10   2   1 22190.1 2942.09   1
  10  -2   0-3.37678 25.1300   1
 -10   2   0 98.1598 52.9581   1
 -10   2  -1 16036.8 2231.58   1
  10  -2   1 15617.5 2278.78   1
  10  -2   2 70.1807 77.7933   1
 -10   2  -2 181.037 132.207   1
 -10   2  -3-3.36866 9.63647   1
  10  -2   3-2836.49 442.063   1
 -10   2  -4-3.69626 0.55690   1
  10  -2   4-5.03006 0.55690   1
  10   2   4-4.47445 0.55690   1
 -10   2  -5-4.04729 1.02000   1
 -10  -2  -5-3.44902 0.51889   1
  10   2   5-5.00275 0.51889   1
  10   2   6-5.32460 1.30898   1
 -10  -2  -6-3.65585 0.94466   1
 -10  -2  -7-3.90833 1.07185   1
  10   2   7-5.76710 1.44746   1
  10   2   8-6.22403 1.65872   1
 -10  -2  -8-4.14517 1.22859   1
  10  -3  -4 92.2868 77.8755   1
  10  -3  -3 89.1087 72.2656   1
 -10   3   2 4.14153 20.5496   1
  10  -3  -2-90.1196 68.9122   1
 -10   3   1 174.420 105.406   1
  10  -3  -1 279.553 175.243   1
  10  -3   0 135.132 120.395   1
 -10   3   0 211.280 83.3402   1
 -10   3  -1 17.2925 37.6173   1
  10  -3   1 529.898 226.783   1
 -10   3  -2 466.064 173.120   1
  10  -3   2 376.192 166.502   1
 -10   3  -3-3.49180 0.51462   1
  10  -3   3-4.76180 0.51462   1
  10   3   7-5.63974 1.56125   1
  10   3   8-6.07235 1.66575   1
  10  -4  -4 8776.69 1286.31   1
  10  -4  -3 6629.34 1068.46   1
 -10   4   3 7226.56 1026.98   1
 -10   4   2 9958.37 1380.30   1
  10  -4  -2 9088.58 1431.41   1
  10  -4  -1 2296.98 493.440   1
 -10   4   1 2860.57 477.909   1
 -10   4   0 24384.8 3341.12   1
 -10   4  -1 4117.85 703.372   1
 -10   5   3 181.522 93.8346   1
 -10   5   2 1526.03 300.878   1
 -10   5   1 46.7708 71.8374   1
 -11   0  -1 36.1601 53.0467   1
  11   0   1 81.2159 102.522   1
 -11   0  -2-3.27169 0.48423   1
  11   0   2-4.53196 0.48423   1
  11   0   3-4.90522 0.52041   1
 -11   0  -3-3.50734 0.52041   1
  11   0   4-5.33070 1.29677   1
 -11   0  -4-3.70163 0.97517   1
 -11   0  -5-3.99468 1.02191   1
  11   0   5-5.85014 1.42054   1
  11   0   6-6.40790 1.60624   1
 -11   0  -6-4.29911 1.15793   1
  11  -1  -1 6662.06 1057.13   1
 -11   1   0 1709.68 333.381   1
  11  -1   0 1797.73 405.475   1
 -11   1  -1 1380.81 274.285   1
  11  -1   1 348.776 207.150   1
  11  -1   2-4.51294 0.47676   1
 -11   1  -2-3.20834 0.47676   1
  11  -1   3-4.99332 0.51696   1
 -11  -1  -3-3.45575 0.51696   1
  11   1   3-4.83050 0.51696   1
 -11   1  -3-3.49507 0.51696   1
 -11  -1  -4-3.70158 0.98099   1
 -11   1  -4-3.86985 1.00935   1
  11   1   4-5.32620 1.31531   1
  11  -1   4-5.48846 1.29998   1
  11   1   5-5.69393 1.34589   1
 -11  -1  -5-3.99485 1.10208   1
  11  -1   5-6.02669 1.49522   1
 -11   1  -5-4.23352 1.11511   1
  11  -1   6-6.57406 1.62960   1
 -11  -1  -6-4.32661 1.17242   1
  11   1   6-6.20521 1.53649   1
 -11   1  -6-4.58939 1.26808   1
  11  -2  -3 838.175 232.605   1
  11  -2  -2 81.4404 81.8436   1
  11  -2  -1 84.3602 137.067   1
 -11   2   1-17.8710 42.4157   1
  11  -2   0 522.151 196.615   1
 -11   2   0 529.262 158.650   1
  11  -2   1 675.990 239.272   1
 -11   2  -1 693.486 208.036   1
 -11   2  -2-3.36618 0.49848   1
  11  -2   2-4.67226 0.49848   1
  11  -2   3-5.18669 0.55546   1
 -11   2  -3-3.75611 0.55546   1
  11  -2   4-5.65810 1.35349   1
 -11   2  -4-4.11241 1.05757   1
 -11   2  -5-4.49628 1.19473   1
  11  -2   5-6.21069 1.51379   1
  11   2   5-5.74462 1.48728   1
  11   2   6-6.06790 1.55803   1
 -11  -2  -6-4.15447 1.13856   1
  11  -3  -4 9852.09 1452.39   1
  11  -3  -3 1548.72 331.617   1
 -11   3   2 4775.92 752.682   1
  11  -3  -2 4936.07 806.007   1
 -11   3   1 4514.26 703.774   1
  11  -3  -1 4175.80 760.274   1
 -11   3   0 12714.7 1762.73   1
  11  -3   0 11481.3 1810.39   1
  11  -3   1 2843.30 651.565   1
 -11   3  -2-3.52653 0.52150   1
  11  -3   2-4.86936 0.52150   1
 -11   3  -3-3.87967 0.60257   1
  11  -3   3-5.35536 0.60257   1
 -11   4   3 84.4897 53.0418   1
  11  -4  -3 196.634 132.471   1
  11  -4  -2 134.210 81.1618   1
 -11   4   2 331.254 113.546   1
  11  -4  -1 1060.76 318.027   1
 -11   4   1 1401.71 290.057   1
  11  -4   0 25.0844 77.1448   1
 -11   4   0-121.857 99.7110   1
 -11   4  -1-3.28851 0.42997   1
 -11   5   3 5117.53 774.516   1
 -11   5   2 35.7575 32.8664   1
 -11   5   1 10164.2 1493.54   1
  12   0   1-4.68350 0.61236   1
 -12   0  -2-3.63147 0.93431   1
  12   0   2-5.18850 1.21683   1
  12   0   3-5.57082 1.31185   1
 -12   0  -3-3.95680 1.04064   1
  12   0   4-6.05429 1.55953   1
 -12   0  -4-4.25418 1.13096   1
 -12   0  -5-4.53440 1.24299   1
  12   0   5-6.64639 1.66958   1
  12  -1  -1 2780.20 655.910   1
  12  -1   0-4.39561 0.57472   1
  12  -1   1-4.73761 0.50596   1
 -12   1  -1-3.41795 0.50596   1
  12  -1   2-5.13582 1.25425   1
 -12   1  -2-3.68013 0.96513   1
  12  -1   3-5.67438 1.37862   1
 -12   1  -3-3.90064 1.06920   1
  12   1   3-5.56687 1.38907   1
  12  -1   4-6.21861 1.52531   1
 -12  -1  -4-4.16793 1.17691   1
 -12   1  -4-4.25867 1.14147   1
  12   1   4-6.08002 1.49720   1
  12   1   5-6.48018 1.63595   1
 -12  -1  -5-4.47710 1.26678   1
  12  -1   5-6.83060 1.67109   1
 -12   1  -5-4.64450 1.26563   1
  12  -2  -2 5058.69 862.747   1
  12  -2  -1 1570.79 409.427   1
 -12   2   1 1478.89 320.398   1
  12  -2   0-4.37845 0.47028   1
 -12   2   0-3.18354 0.47028   1
  12  -2   1-4.82255 0.50011   1
 -12   2  -1-3.34503 0.50011   1
 -12   2  -2-3.65808 0.97527   1
  12  -2   2-5.30821 1.27562   1
  12  -2   3-5.85838 1.39200   1
 -12   2  -3-4.06601 1.07133   1
  12  -2   4-6.39072 1.57487   1
 -12   2  -4-4.46714 1.18806   1
  12  -3  -3 682.703 210.328   1
 -12   3   2 5085.00 777.826   1
  12  -3  -2 4505.79 819.169   1
  12  -3  -1 2097.28 652.775   1
 -12   3   1 5335.14 785.742   1
  12  -3   0-4.53673 0.46359   1
 -12   3   0-3.08685 0.46359   1
  12  -3   1-4.98782 0.51757   1
 -12   3  -1-3.46248 0.51757   1
  12  -3   2-5.45936 1.34711   1
 -12   3  -2-3.85313 1.03398   1
  12  -3   3-6.01775 1.47067   1
 -12   3  -3-4.30474 1.17597   1
 -12   3  -4-4.72541 1.22262   1
  12  -4  -3-260.873 175.757   1
  12  -4  -2 5571.30 986.623   1
 -12   4   2 6374.94 944.351   1
 -12   4   1-2.83947 0.42861   1
  12  -4  -1-4.27033 0.42861   1
  12  -4   0-4.68777 0.48204   1
 -12   4   0-3.21574 0.48204   1
 -12   4  -1 29.1280 40.0684   1
 -12   4  -2-4.01701 1.05003   1
 -12   5   3 3786.51 613.083   1
 -12   5   2 209.513 107.547   1
 -12   5   1-2.93798 0.38414   1
  13   0   2-5.90802 1.49665   1
  13   0   3-6.31331 1.57233   1
 -13   0  -3-4.38973 1.20172   1
  13  -1   0-4.99305 1.29186   1
  13  -1   1-5.35321 1.32090   1
 -13   1  -1-3.77775 1.01376   1
  13  -1   2-5.85762 1.47804   1
 -13   1  -2-4.13733 1.13132   1
  13  -1   3-6.43014 1.60142   1
 -13   1  -3-4.47079 1.20109   1
  13  -2  -1-4.52178 0.59122   1
  13  -2   0-4.99535 1.28868   1
 -13   2   0-3.48606 0.97602   1
 -13   2  -1-3.86022 1.05527   1
  13  -2   1-5.44577 1.40431   1
  13  -2   2-5.99516 1.52138   1
 -13   2  -2-4.06788 1.12574   1
  13  -2   3-6.61981 1.69650   1
 -13   2  -3-4.46218 1.22419   1
  13  -3  -2-4.25116 0.55584   1
  13  -3  -1-4.63935 0.47609   1
 -13   3   1-3.17407 0.47609   1
  13  -3   0-5.13432 1.31751   1
 -13   3   0-3.49783 0.95893   1
 -13   3  -1-3.75893 1.03168   1
  13  -3   1-5.61147 1.40632   1
  13  -3   2-6.16568 1.49447   1
 -13   3  -2-4.15527 1.15044   1
 -13   4   2-2.86678 0.43345   1
  13  -4  -2-4.34524 0.43345   1
  13  -4  -1-4.78430 0.51867   1
 -13   4   1-3.15914 0.51867   1
  13  -4   0-5.24921 1.35600   1
 -13   4   0-3.46545 0.95203   1
 -13   4  -1-3.92823 1.08745   1
 -13   4  -2-4.42814 1.20349   1
 -13   5   2-2.85175 0.37286   1
 -13   5   1-3.15309 0.88850   1
  14  -1   1-6.07956 1.68301   1
  14  -2  -1-5.13018 1.47061   1
  14  -2   0-5.64813 1.49127   1
 -14   2  -1-4.22290 1.21984   1
  14  -2   1-6.18393 1.55359   1
  14  -3  -2-4.77377 1.32152   1
  14  -3  -1-5.25275 1.49301   1
  14  -3   0-5.76945 1.59877   1
 -14   3   0-3.89751 1.06912   1
 -14   3  -1-4.22163 1.19030   1
  14  -3   1-6.31088 1.64960   1
  14  -4  -2-4.88056 1.41080   1
  14  -4  -1-5.34987 1.43819   1
 -14   4   1-3.53146 1.06357   1
  14  -4   0-5.87294 1.59253   1
 -14   4   0-3.84659 1.14114   1
 -14   5   1-3.45580 0.96527   1
   0   0   0    0.00    0.00   0

TITL slav_p06_s1 in P2(1)/c
REM P2(1)/c (#14 in standard setting)
CELL 0.41106   8.827213   8.735433   6.831052  90.0000  90.1768  90.0000
ZERR    4.00   0.000347   0.002381   0.000427   0.0000   0.0044   0.0000
LATT  1
SYMM -x, y+1/2,-z+1/2
SFAC O Al Si Sr
UNIT 32.00 8.00 8.00 4.00
TREF
HKLF 4
END
;
_shelx_hkl_checksum              48184
loop_
_space_group_symop_operation_xyz
'x, y, z'
'-x, y+1/2, -z+1/2'
'-x, -y, -z'
'x, -y-1/2, z-1/2'
loop_
_atom_site_label
_atom_site_type_symbol
_atom_site_fract_x
_atom_site_fract_y
_atom_site_fract_z
_atom_site_U_iso_or_equiv
_atom_site_adp_type
_atom_site_occupancy
_atom_site_site_symmetry_order
_atom_site_calc_flag
_atom_site_refinement_flags_posn
_atom_site_refinement_flags_adp
_atom_site_refinement_flags_occupancy
_atom_site_disorder_assembly
_atom_site_disorder_group
Sr1 Sr 0.7501(2) 0.6116(6) 0.2695(4) 0.022(2) Uani 1 1 d . . . . .
Si1 Si 0.5844(8) 0.541(2) 0.7787(13) 0.023(5) Uani 1 1 d . . . . .
Si2 Si 1.0744(8) 0.716(2) 0.5023(13) 0.024(6) Uani 1 1 d . . . . .
Al1 Al 0.9122(9) 0.530(3) 0.8144(15) 0.036(8) Uani 1 1 d . . . . .
Al2 Al 0.4090(8) 0.761(2) 1.0132(14) 0.024(7) Uani 1 1 d . . . . .
O1 O 0.735(2) 0.603(6) 0.893(4) 0.033(6) Uiso 1 1 d . . . . .
O2 O 0.947(2) 0.371(6) 0.717(4) 0.026(5) Uiso 1 1 d . . . . .
O3 O 1.078(2) 0.900(5) 0.437(3) 0.023(4) Uiso 1 1 d . . . . .
O4 O 0.429(2) 0.598(5) 0.889(3) 0.022(4) Uiso 1 1 d . . . . .
O5 O 0.5808(19) 0.638(5) 0.576(3) 0.022(4) Uiso 1 1 d . . . . .
O6 O 1.236(3) 0.656(6) 0.577(4) 0.037(6) Uiso 1 1 d . . . . .
O7 O 0.915(2) 0.647(5) 0.602(3) 0.025(5) Uiso 1 1 d . . . . .
O8 O 0.585(2) 0.363(6) 0.745(3) 0.023(4) Uiso 1 1 d . . . . .
loop_
_atom_site_aniso_label
_atom_site_aniso_U_11
_atom_site_aniso_U_22
_atom_site_aniso_U_33
_atom_site_aniso_U_23
_atom_site_aniso_U_13
_atom_site_aniso_U_12
Sr1 0.0276(13) 0.017(8) 0.020(2) -0.0003(15) 0.0070(11) 0.0011(13)
Si1 0.025(3) 0.029(19) 0.014(5) 0.000(6) 0.007(3) 0.007(4)
Si2 0.023(3) 0.03(2) 0.022(5) -0.009(5) 0.003(3) -0.001(4)
Al1 0.023(3) 0.07(3) 0.012(6) 0.001(6) 0.009(3) 0.005(5)
Al2 0.017(3) 0.03(2) 0.026(6) -0.001(6) 0.002(3) 0.002(4)
loop_
_atom_type_symbol
_atom_type_description
_atom_type_scat_dispersion_real
_atom_type_scat_dispersion_imag
_atom_type_scat_source
O O 0.0017 0.0018 'International Tables Vol C Tables 4.2.6.8 and 6.1.1.4'
Al Al 0.0192 0.0163 'International Tables Vol C Tables 4.2.6.8 and 6.1.1.4'
Si Si 0.0265 0.0226 'International Tables Vol C Tables 4.2.6.8 and 6.1.1.4'
Sr Sr 0.2429 1.2951 'International Tables Vol C Tables 4.2.6.8 and 6.1.1.4'
loop_
_geom_angle_atom_site_label_1
_geom_angle_atom_site_label_2
_geom_angle_atom_site_label_3
_geom_angle
_geom_angle_site_symmetry_1
_geom_angle_site_symmetry_3
_geom_angle_publ_flag
O6 Sr1 O1 112.7(14) 3_766 1_554 ?
O6 Sr1 O5 77.2(12) 3_766 . ?
O1 Sr1 O5 141.5(6) 1_554 . ?
O6 Sr1 O1 137.2(10) 3_766 4_575 ?
O1 Sr1 O1 110.1(10) 1_554 4_575 ?
O5 Sr1 O1 68.1(12) . 4_575 ?
O6 Sr1 O4 64.2(10) 3_766 3_666 ?
O1 Sr1 O4 62.9(11) 1_554 3_666 ?
O5 Sr1 O4 92.7(9) . 3_666 ?
O1 Sr1 O4 139.0(9) 4_575 3_666 ?
O6 Sr1 O2 89.5(12) 3_766 3_766 ?
O1 Sr1 O2 94.9(7) 1_554 3_766 ?
O5 Sr1 O2 123.0(7) . 3_766 ?
O1 Sr1 O2 89.2(11) 4_575 3_766 ?
O4 Sr1 O2 130.5(12) 3_666 3_766 ?
O6 Sr1 O7 74.7(12) 3_766 . ?
O1 Sr1 O7 149.9(7) 1_554 . ?
O5 Sr1 O7 67.8(6) . . ?
O1 Sr1 O7 69.6(11) 4_575 . ?
O4 Sr1 O7 137.7(12) 3_666 . ?
O2 Sr1 O7 55.3(7) 3_766 . ?
O6 Sr1 O3 64.9(10) 3_766 2_745 ?
O1 Sr1 O3 60.1(11) 1_554 2_745 ?
O5 Sr1 O3 142.1(12) . 2_745 ?
O1 Sr1 O3 145.0(9) 4_575 2_745 ?
O4 Sr1 O3 70.1(8) 3_666 2_745 ?
O2 Sr1 O3 60.6(11) 3_766 2_745 ?
O7 Sr1 O3 102.0(8) . 2_745 ?
O6 Sr1 O7 145.8(8) 3_766 4_575 ?
O1 Sr1 O7 68.9(11) 1_554 4_575 ?
O5 Sr1 O7 124.3(12) . 4_575 ?
O1 Sr1 O7 56.4(9) 4_575 4_575 ?
O4 Sr1 O7 131.5(8) 3_666 4_575 ?
O2 Sr1 O7 56.8(12) 3_766 4_575 ?
O7 Sr1 O7 88.7(8) . 4_575 ?
O3 Sr1 O7 90.5(10) 2_745 4_575 ?
O6 Sr1 O5 151.6(7) 3_766 4_575 ?
O1 Sr1 O5 63.2(11) 1_554 4_575 ?
O5 Sr1 O5 90.2(8) . 4_575 ?
O1 Sr1 O5 54.4(8) 4_575 4_575 ?
O4 Sr1 O5 91.6(10) 3_666 4_575 ?
O2 Sr1 O5 118.4(12) 3_766 4_575 ?
O7 Sr1 O5 124.0(12) . 4_575 ?
O3 Sr1 O5 122.7(7) 2_745 4_575 ?
O7 Sr1 O5 61.6(7) 4_575 4_575 ?
O6 Sr1 O8 97.4(10) 3_766 3_666 ?
O1 Sr1 O8 85.5(7) 1_554 3_666 ?
O5 Sr1 O8 56.0(6) . 3_666 ?
O1 Sr1 O8 83.5(10) 4_575 3_666 ?
O4 Sr1 O8 56.3(10) 3_666 3_666 ?
O2 Sr1 O8 172.3(15) 3_766 3_666 ?
O7 Sr1 O8 123.4(7) . 3_666 ?
O3 Sr1 O8 125.5(9) 2_745 3_666 ?
O7 Sr1 O8 116.6(10) 4_575 3_666 ?
O5 Sr1 O8 55.0(10) 4_575 3_666 ?
O6 Sr1 Si1 73.2(6) 3_766 3_666 ?
O1 Sr1 Si1 81.0(7) 1_554 3_666 ?
O5 Sr1 Si1 65.9(6) . 3_666 ?
O1 Sr1 Si1 111.9(6) 4_575 3_666 ?
O4 Sr1 Si1 30.2(6) 3_666 3_666 ?
O2 Sr1 Si1 158.7(12) 3_766 3_666 ?
O7 Sr1 Si1 128.0(6) . 3_666 ?
O3 Sr1 Si1 100.0(6) 2_745 3_666 ?
O7 Sr1 Si1 137.5(5) 4_575 3_666 ?
O5 Sr1 Si1 78.5(6) 4_575 3_666 ?
O8 Sr1 Si1 28.9(9) 3_666 3_666 ?
O8 Si1 O5 113.1(17) . . ?
O8 Si1 O1 113.5(19) . . ?
O5 Si1 O1 104.2(18) . . ?
O8 Si1 O4 112(2) . . ?
O5 Si1 O4 102.6(17) . . ?
O1 Si1 O4 111.0(16) . . ?
O8 Si1 Al1 88.7(9) . . ?
O5 Si1 Al1 96.1(8) . . ?
O1 Si1 Al1 33.0(13) . . ?
O4 Si1 Al1 143.4(10) . . ?
O8 Si1 Sr1 65.3(7) . 3_666 ?
O5 Si1 Sr1 96.5(8) . 3_666 ?
O1 Si1 Sr1 157.2(11) . 3_666 ?
O4 Si1 Sr1 54.1(13) . 3_666 ?
Al1 Si1 Sr1 153.9(8) . 3_666 ?
O8 Si1 Sr1 152.5(8) . 4_576 ?
O5 Si1 Sr1 61.3(14) . 4_576 ?
O1 Si1 Sr1 49.8(17) . 4_576 ?
O4 Si1 Sr1 95.6(17) . 4_576 ?
Al1 Si1 Sr1 66.4(5) . 4_576 ?
Sr1 Si1 Sr1 139.5(5) 3_666 4_576 ?
O8 Si1 Sr1 107.3(9) . 1_556 ?
O5 Si1 Sr1 133.7(15) . 1_556 ?
O1 Si1 Sr1 36.3(10) . 1_556 ?
O4 Si1 Sr1 82.0(8) . 1_556 ?
Al1 Si1 Sr1 62.6(3) . 1_556 ?
Sr1 Si1 Sr1 121.0(3) 3_666 1_556 ?
Sr1 Si1 Sr1 72.3(3) 4_576 1_556 ?
O6 Si2 O3 113(2) . . ?
O6 Si2 O7 119.8(19) . . ?
O3 Si2 O7 118.1(18) . . ?
O6 Si2 O2 103.3(17) . 3_766 ?
O3 Si2 O2 102(2) . 3_766 ?
O7 Si2 O2 96.0(17) . 3_766 ?
O6 Si2 Sr1 144(2) . . ?
O3 Si2 Sr1 98.6(7) . . ?
O7 Si2 Sr1 52.2(7) . . ?
O2 Si2 Sr1 51.1(7) 3_766 . ?
O6 Si2 Sr1 38.7(18) . 3_766 ?
O3 Si2 Sr1 150.8(7) . 3_766 ?
O7 Si2 Sr1 84.1(14) . 3_766 ?
O2 Si2 Sr1 94.0(17) 3_766 3_766 ?
Sr1 Si2 Sr1 110.4(5) . 3_766 ?
O6 Si2 Sr1 131.5(11) . 4_576 ?
O3 Si2 Sr1 75.8(9) . 4_576 ?
O7 Si2 Sr1 45.5(16) . 4_576 ?
O2 Si2 Sr1 122.2(8) 3_766 4_576 ?
Sr1 Si2 Sr1 71.91(17) . 4_576 ?
Sr1 Si2 Sr1 116.0(3) 3_766 4_576 ?
O2 Al1 O1 129(2) . . ?
O2 Al1 O7 99.1(19) . . ?
O1 Al1 O7 92.9(17) . . ?
O2 Al1 O3 110.1(15) . 4_576 ?
O1 Al1 O3 116.8(17) . 4_576 ?
O7 Al1 O3 99.8(16) . 4_576 ?
O2 Al1 O3 82(2) . 2_746 ?
O1 Al1 O3 89.3(15) . 2_746 ?
O7 Al1 O3 176.4(13) . 2_746 ?
O3 Al1 O3 76.6(17) 4_576 2_746 ?
O2 Al1 Si1 101.0(12) . . ?
O1 Al1 Si1 30.1(12) . . ?
O7 Al1 Si1 85.9(7) . . ?
O3 Al1 Si1 146.9(13) 4_576 . ?
O3 Al1 Si1 97.5(8) 2_746 . ?
O2 Al1 Sr1 54.1(9) . 3_766 ?
O1 Al1 Sr1 172.5(10) . 3_766 ?
O7 Al1 Sr1 93.4(9) . 3_766 ?
O3 Al1 Sr1 58.1(11) 4_576 3_766 ?
O3 Al1 Sr1 84.1(8) 2_746 3_766 ?
Si1 Al1 Sr1 154.7(8) . 3_766 ?
O2 Al1 Sr1 147.6(12) . 4_576 ?
O1 Al1 Sr1 48.2(17) . 4_576 ?
O7 Al1 Sr1 53.9(14) . 4_576 ?
O3 Al1 Sr1 93.8(15) 4_576 4_576 ?
O3 Al1 Sr1 126.5(11) 2_746 4_576 ?
Si1 Al1 Sr1 63.3(5) . 4_576 ?
Sr1 Al1 Sr1 134.6(6) 3_766 4_576 ?
O2 Al1 Sr1 129.8(19) . 1_556 ?
O1 Al1 Sr1 45.2(9) . 1_556 ?
O7 Al1 Sr1 127.9(16) . 1_556 ?
O3 Al1 Sr1 81.3(8) 4_576 1_556 ?
O3 Al1 Sr1 52.7(10) 2_746 1_556 ?
Si1 Al1 Sr1 70.0(3) . 1_556 ?
Sr1 Al1 Sr1 127.4(3) 3_766 1_556 ?
Sr1 Al1 Sr1 73.9(3) 4_576 1_556 ?
O4 Al2 O6 125.3(18) . 4_476 ?
O4 Al2 O5 116.5(14) . 4_576 ?
O6 Al2 O5 118(2) 4_476 4_576 ?
O4 Al2 O8 85.8(17) . 2_656 ?
O6 Al2 O8 93.6(16) 4_476 2_656 ?
O5 Al2 O8 88.1(14) 4_576 2_656 ?
O4 Al2 O8 87.5(19) . 3_667 ?
O6 Al2 O8 92.3(16) 4_476 3_667 ?
O5 Al2 O8 92.7(13) 4_576 3_667 ?
O8 Al2 O8 172.8(13) 2_656 3_667 ?
O4 Al2 Sr1 86.5(11) . 4_576 ?
O6 Al2 Sr1 135.7(19) 4_476 4_576 ?
O5 Al2 Sr1 42.2(7) 4_576 4_576 ?
O8 Al2 Sr1 54.9(6) 2_656 4_576 ?
O8 Al2 Sr1 122.1(6) 3_667 4_576 ?
O4 Al2 Sr1 163.1(7) . 2_656 ?
O6 Al2 Sr1 38.6(16) 4_476 2_656 ?
O5 Al2 Sr1 79.6(13) 4_576 2_656 ?
O8 Al2 Sr1 89.9(14) 2_656 2_656 ?
O8 Al2 Sr1 97.3(13) 3_667 2_656 ?
Sr1 Al2 Sr1 104.4(5) 4_576 2_656 ?
O4 Al2 Sr1 81.5(9) . 1_556 ?
O6 Al2 Sr1 137.3(10) 4_476 1_556 ?
O5 Al2 Sr1 51.7(13) 4_576 1_556 ?
O8 Al2 Sr1 123.6(7) 2_656 1_556 ?
O8 Al2 Sr1 52.6(6) 3_667 1_556 ?
Sr1 Al2 Sr1 69.56(16) 4_576 1_556 ?
Sr1 Al2 Sr1 114.3(3) 2_656 1_556 ?
Si1 O1 Al1 117(2) . . ?
Si1 O1 Sr1 121.6(15) . 1_556 ?
Al1 O1 Sr1 105.6(11) . 1_556 ?
Si1 O1 Sr1 101.8(17) . 4_576 ?
Al1 O1 Sr1 101.6(18) . 4_576 ?
Sr1 O1 Sr1 106.9(16) 1_556 4_576 ?
Al1 O2 Si2 139(3) . 3_766 ?
Al1 O2 Sr1 97.5(17) . 3_766 ?
Si2 O2 Sr1 99.6(11) 3_766 3_766 ?
Si2 O3 Al1 116.3(17) . 4_575 ?
Si2 O3 Al1 108.3(15) . 2_756 ?
Al1 O3 Al1 103.4(17) 4_575 2_756 ?
Si2 O3 Sr1 141.8(14) . 2_755 ?
Al1 O3 Sr1 88.8(14) 4_575 2_755 ?
Al1 O3 Sr1 91.6(15) 2_756 2_755 ?
Si1 O4 Al2 126(2) . . ?
Si1 O4 Sr1 95.8(17) . 3_666 ?
Al2 O4 Sr1 137.2(10) . 3_666 ?
Si1 O5 Al2 118.1(12) . 4_575 ?
Si1 O5 Sr1 129.2(18) . . ?
Al2 O5 Sr1 109.8(11) 4_575 . ?
Si1 O5 Sr1 89.8(11) . 4_576 ?
Al2 O5 Sr1 99.7(18) 4_575 4_576 ?
Sr1 O5 Sr1 97.8(9) . 4_576 ?
Si2 O6 Al2 124(3) . 4_675 ?
Si2 O6 Sr1 118(2) . 3_766 ?
Al2 O6 Sr1 116.2(18) 4_675 3_766 ?
Si2 O7 Al1 123.6(12) . . ?
Si2 O7 Sr1 98.6(10) . . ?
Al1 O7 Sr1 127.6(19) . . ?
Si2 O7 Sr1 109(2) . 4_576 ?
Al1 O7 Sr1 95.3(13) . 4_576 ?
Sr1 O7 Sr1 98.6(9) . 4_576 ?
Si1 O8 Al2 125(2) . 2_646 ?
Si1 O8 Al2 114.7(16) . 3_667 ?
Al2 O8 Al2 120(2) 2_646 3_667 ?
Si1 O8 Sr1 85.8(12) . 3_666 ?
Al2 O8 Sr1 92.1(7) 2_646 3_666 ?
Al2 O8 Sr1 95.4(9) 3_667 3_666 ?
loop_
_geom_bond_atom_site_label_1
_geom_bond_atom_site_label_2
_geom_bond_distance
_geom_bond_site_symmetry_2
_geom_bond_publ_flag
Sr1 O6 2.56(5) 3_766 ?
Sr1 O1 2.58(3) 1_554 ?
Sr1 O5 2.59(2) . ?
Sr1 O1 2.63(5) 4_575 ?
Sr1 O4 2.65(3) 3_666 ?
Sr1 O2 2.68(2) 3_766 ?
Sr1 O7 2.71(2) . ?
Sr1 O3 2.78(3) 2_745 ?
Sr1 O7 2.81(4) 4_575 ?
Sr1 O5 2.96(4) 4_575 ?
Sr1 O8 2.965(18) 3_666 ?
Sr1 Si1 3.254(11) 3_666 ?
Si1 O8 1.58(5) . ?
Si1 O5 1.63(3) . ?
Si1 O1 1.63(3) . ?
Si1 O4 1.64(2) . ?
Si1 Al1 2.905(11) . ?
Si2 O6 1.61(3) . ?
Si2 O3 1.66(4) . ?
Si2 O7 1.68(3) . ?
Si2 O2 1.69(3) 3_766 ?
Al1 O2 1.57(6) . ?
Al1 O1 1.77(3) . ?
Al1 O7 1.78(4) . ?
Al1 O3 1.79(2) 4_576 ?
Al1 O3 2.04(4) 2_746 ?
Al2 O4 1.67(5) . ?
Al2 O6 1.75(3) 4_476 ?
Al2 O5 1.80(3) 4_576 ?
Al2 O8 1.97(3) 2_656 ?
Al2 O8 1.98(4) 3_667 ?
