#------------------------------------------------------------------------------
#$Date: 2021-07-04 04:49:46 +0300 (Sun, 04 Jul 2021) $
#$Revision: 266973 $
#$URL: file:///home/coder/svn-repositories/cod/cif/1/56/31/1563155.cif $
#------------------------------------------------------------------------------
#
# This file is available in the Crystallography Open Database (COD),
# http://www.crystallography.net/
#
# All data on this site have been placed in the public domain by the
# contributors.
#
data_1563155
loop_
_publ_author_name
'Gorelova, Liudmila A.'
'Pakhomova, Anna S.'
'Krzhizhanovskaya, Maria G.'
'Pankin, Dmitrii V.'
'Krivovichev, Sergey V.'
'Dubrovinsky, Leonid S.'
'Kasatkin, Anatoly V.'
_publ_section_title
;
 Crystal Structure Evolution of Slawsonite SrAl2Si2O8 and Paracelsian
 BaAl2Si2O8 upon Compression and Decompression
;
_journal_issue                   23
_journal_name_full               'The Journal of Physical Chemistry C'
_journal_page_first              13014
_journal_page_last               13023
_journal_paper_doi               10.1021/acs.jpcc.1c02949
_journal_volume                  125
_journal_year                    2021
_chemical_formula_sum            'Al2 O8 Si2 Sr'
_chemical_formula_weight         325.76
_space_group_crystal_system      monoclinic
_space_group_IT_number           14
_space_group_name_Hall           '-P 2ybc'
_space_group_name_H-M_alt        'P 1 21/c 1'
_audit_creation_method           SHELXL-2018/3
_cell_angle_alpha                90
_cell_angle_beta                 90.340(3)
_cell_angle_gamma                90
_cell_formula_units_Z            4
_cell_length_a                   8.2768(2)
_cell_length_b                   9.2699(16)
_cell_length_c                   8.6896(3)
_cell_measurement_reflns_used    981
_cell_measurement_temperature    293(2)
_cell_measurement_theta_max      19.157
_cell_measurement_theta_min      2.847
_cell_volume                     666.70(12)
_computing_structure_refinement  'SHELXL-2018/3 (Sheldrick, 2018)'
_diffrn_ambient_temperature      293(2)
_diffrn_measured_fraction_theta_full 0.375
_diffrn_measured_fraction_theta_max 0.212
_diffrn_measurement_device_type
'esperanto-CrysAlisPro-abstract goniometer imported esperanto images'
_diffrn_radiation_type           synchrotron
_diffrn_radiation_wavelength     0.41106
_diffrn_reflns_av_R_equivalents  0.0509
_diffrn_reflns_av_unetI/netI     0.0596
_diffrn_reflns_Laue_measured_fraction_full 0.375
_diffrn_reflns_Laue_measured_fraction_max 0.212
_diffrn_reflns_limit_h_max       11
_diffrn_reflns_limit_h_min       -12
_diffrn_reflns_limit_k_max       6
_diffrn_reflns_limit_k_min       -4
_diffrn_reflns_limit_l_max       12
_diffrn_reflns_limit_l_min       -12
_diffrn_reflns_number            981
_diffrn_reflns_point_group_measured_fraction_full 0.375
_diffrn_reflns_point_group_measured_fraction_max 0.212
_diffrn_reflns_theta_full        14.279
_diffrn_reflns_theta_max         19.157
_diffrn_reflns_theta_min         2.847
_exptl_absorpt_coefficient_mu    2.039
_exptl_crystal_colour            colorless
_exptl_crystal_density_diffrn    3.245
_exptl_crystal_density_meas      ?
_exptl_crystal_density_method    none
_exptl_crystal_description       isosymmetric
_exptl_crystal_F_000             624
_exptl_crystal_size_max          0.010
_exptl_crystal_size_mid          0.010
_exptl_crystal_size_min          0.005
_refine_diff_density_max         1.041
_refine_diff_density_min         -0.941
_refine_diff_density_rms         0.232
_refine_ls_extinction_method     none
_refine_ls_goodness_of_fit_ref   1.121
_refine_ls_hydrogen_treatment    undef
_refine_ls_matrix_type           full
_refine_ls_number_parameters     78
_refine_ls_number_reflns         602
_refine_ls_number_restraints     0
_refine_ls_restrained_S_all      1.121
_refine_ls_R_factor_all          0.0632
_refine_ls_R_factor_gt           0.0460
_refine_ls_shift/su_max          0.000
_refine_ls_shift/su_mean         0.000
_refine_ls_structure_factor_coef Fsqd
_refine_ls_weighting_details
'w=1/[\s^2^(Fo^2^)+(0.0588P)^2^+17.6175P] where P=(Fo^2^+2Fc^2^)/3'
_refine_ls_weighting_scheme      calc
_refine_ls_wR_factor_gt          0.1204
_refine_ls_wR_factor_ref         0.1540
_reflns_Friedel_coverage         0.000
_reflns_number_gt                491
_reflns_number_total             602
_reflns_threshold_expression     'I > 2\s(I)'
_cod_data_source_file            slav_p03.cif
_cod_data_source_block           shelx
_cod_depositor_comments
;
The following automatic conversions were performed:

data item '_exptl_crystal_density_meas' value 'none' was changed to
'?' -- the value is perceived as not measured.

Automatic conversion script
Id: cif_fix_values 7556 2019-12-06 15:28:31Z antanas 

 Adding full bibliography for 1563145--1563156.cif.
;
_cod_original_sg_symbol_H-M      'P 21/c'
_cod_database_code               1563155
_shelx_shelxl_version_number     2018/3
_shelx_space_group_comment
;
The symmetry employed for this shelxl refinement is uniquely defined
by the following loop, which should always be used as a source of
symmetry information in preference to the above space-group names.
They are only intended as comments.
;
_shelx_res_file
;
TITL slav_p03_s1 in P2(1)/c
    shelx.res
    created by SHELXL-2018/3 at 13:10:21 on 19-Jan-2021
REM P2(1)/c (#14 in standard setting)
CELL 0.41106   8.276817   9.269947   8.689574  90.0000  90.3398  90.0000
ZERR    4.00   0.000200   0.001582   0.000292   0.0000   0.0027   0.0000
LATT  1
SYMM -x, y+1/2,-z+1/2
SFAC O Al Si Sr
DISP O 0.00165 0.00179 4.1539
DISP Si 0.026465 0.022605 52.36784
DISP Al 0.019188 0.016298 37.75624
DISP Sr 0.242892 1.295112 3000.317
UNIT 32.00 8.00 8.00 4.00

OMIT     8   3   6
OMIT     3   2   2
OMIT    -2   2   1
OMIT     1   0   8
OMIT    -9   6   2
OMIT     7   4   2
OMIT     3   4  11
OMIT    -8   6   4
OMIT     6   4   1
OMIT    -7   6   6
OMIT     3   5   9
OMIT     6   4  11
OMIT     3   5  10
OMIT -7 5 1

MERG   2
FMAP   2
PLAN   100
BOND
LIST   10
ACTA
REM DAMP 5000
L.S.  20
REM EXTI    0.000000
WGHT    0.058800   17.617500
FVAR       2.64272
SR1   4    0.749390    0.409493    0.616054    11.00000    0.00840    0.02425 =
         0.01407   -0.00166   -0.00011    0.00148
SI1   3    0.560825    0.421288    0.244766    11.00000    0.00765    0.01093 =
         0.00964    0.00327   -0.00218    0.00119
SI2   3    1.057147    0.300500    0.943888    11.00000    0.00759    0.02061 =
         0.01180    0.00030    0.00010    0.00216
AL1   2    1.069610    0.572381    0.762531    11.00000    0.00556    0.04455 =
         0.00860    0.00170    0.00106   -0.00320
AL2   2    0.427043    0.192135    0.448593    11.00000    0.01006    0.03666 =
         0.00503   -0.00083    0.00172   -0.00094
O1    1    0.740369    0.428427    0.321689    11.00000    0.01213
O2    1    0.993282    0.404168    0.807379    11.00000    0.00831
O3    1    1.056210    0.131806    0.886123    11.00000    0.01233
O4    1    0.441723    0.369262    0.381206    11.00000    0.01644
O5    1    0.563867    0.314852    0.103898    11.00000    0.01051
O6    1    1.232680    0.355525    0.999418    11.00000    0.01328
O7    1    0.926255    0.312625    1.080936    11.00000    0.00941
O8    1    0.496534    0.575158    0.193110    11.00000    0.01487

HKLF 4




REM  slav_p03_s1 in P2(1)/c
REM wR2 = 0.1540, GooF = S = 1.121, Restrained GooF = 1.121 for all data
REM R1 = 0.0460 for 491 Fo > 4sig(Fo) and 0.0632 for all 602 data
REM 78 parameters refined using 0 restraints

END

WGHT      0.0576     16.6386

REM Highest difference peak  1.041,  deepest hole -0.941,  1-sigma level  0.232
Q1    1   0.9413  0.3998  0.5659  11.00000  0.05    1.04
Q2    1   1.2615  0.3746  0.7934  11.00000  0.05    0.91
Q3    1   0.8915  0.3862  1.0217  11.00000  0.05    0.86
Q4    1   1.1286  0.4134  0.9958  11.00000  0.05    0.80
Q5    1   0.9989  0.2246  1.1043  11.00000  0.05    0.79
Q6    1   0.7071  0.4611  0.1654  11.00000  0.05    0.77
Q7    1   0.3516  0.0883  0.3985  11.00000  0.05    0.74
Q8    1   1.2433  0.2646  0.8920  11.00000  0.05    0.73
Q9    1   0.6759  0.4790  0.2952  11.00000  0.05    0.72
Q10   1   1.2300  0.3855  0.9589  11.00000  0.05    0.71
Q11   1   0.7615  0.3589  1.1566  11.00000  0.05    0.71
Q12   1   0.2804  0.5475  0.1677  11.00000  0.05    0.70
Q13   1   1.1772  0.5003  0.8844  11.00000  0.05    0.69
Q14   1   0.8400  0.2627  1.0818  11.00000  0.05    0.69
Q15   1   0.6249  0.5973  0.2388  11.00000  0.05    0.69
Q16   1   1.0596  0.3914  0.6305  11.00000  0.05    0.69
Q17   1   0.9217  0.4399  1.0032  11.00000  0.05    0.68
Q18   1   0.6624  0.4460  0.0304  11.00000  0.05    0.67
Q19   1   0.4676  0.5318  0.3407  11.00000  0.05    0.66
Q20   1   0.3051  0.2228  0.2249  11.00000  0.05    0.66
Q21   1   1.0703  0.0569  0.8591  11.00000  0.05    0.65
Q22   1   0.9509  0.0482  0.9430  11.00000  0.05    0.65
Q23   1   0.3119  0.4049  0.2713  11.00000  0.05    0.64
Q24   1   1.1080  0.2156  1.0697  11.00000  0.05    0.64
Q25   1   1.2765  0.4575  0.9589  11.00000  0.05    0.64
Q26   1   1.0440  0.1184  1.0420  11.00000  0.05    0.63
Q27   1   0.4821  0.2802  0.1672  11.00000  0.05    0.63
Q28   1   0.4771  0.4894  0.1425  11.00000  0.05    0.62
Q29   1   1.1587  0.0943  0.9711  11.00000  0.05    0.61
Q30   1   0.6705  0.2403  0.1665  11.00000  0.05    0.61
Q31   1   0.8878  0.4237  0.7375  11.00000  0.05    0.60
Q32   1   0.7102  0.3095  0.0613  11.00000  0.05    0.60
Q33   1   0.5609  0.6870  0.2689  11.00000  0.05    0.59
Q34   1   0.6832  0.3213  0.3780  11.00000  0.05    0.59
Q35   1   0.4057  0.2425  0.3484  11.00000  0.05    0.58
Q36   1   0.5909  0.4570  0.4985  11.00000  0.05    0.58
Q37   1   0.5557  0.5648  0.1323  11.00000  0.05    0.58
Q38   1   0.2737  0.3774  0.4415  11.00000  0.05    0.58
Q39   1   0.4562  0.6848  0.2641  11.00000  0.05    0.58
Q40   1   0.7282  0.2578  0.3104  11.00000  0.05    0.58
Q41   1   0.6401  0.3810  0.1299  11.00000  0.05    0.57
Q42   1   1.1974  0.4323  1.1492  11.00000  0.05    0.57
Q43   1   0.9815  0.4205  1.1024  11.00000  0.05    0.56
Q44   1   1.2295  0.2176  1.0086  11.00000  0.05    0.56
Q45   1   0.7860  0.4409  1.0622  11.00000  0.05    0.56
Q46   1   1.2787  0.3451  1.1454  11.00000  0.05    0.55
Q47   1   0.6706  0.5400  0.2232  11.00000  0.05    0.55
Q48   1   0.4283  0.2709  0.4994  11.00000  0.05    0.55
Q49   1   0.8448  0.4320  0.4641  11.00000  0.05    0.55
Q50   1   0.6272  0.2840 -0.0595  11.00000  0.05    0.55
Q51   1   0.6736  0.5207  0.4830  11.00000  0.05    0.55
Q52   1   1.1925  0.0888  0.8052  11.00000  0.05    0.54
Q53   1   0.7376  0.4066  0.4067  11.00000  0.05    0.54
Q54   1   0.4066  0.3412  0.6036  11.00000  0.05    0.54
Q55   1   0.3678  0.2991  0.2114  11.00000  0.05    0.54
Q56   1   0.9567  0.3670  0.6594  11.00000  0.05    0.53
Q57   1   0.3799  0.5083  0.0535  11.00000  0.05    0.53
Q58   1   0.8614  0.2601  1.1649  11.00000  0.05    0.53
Q59   1   1.1238  0.4354  1.0873  11.00000  0.05    0.53
Q60   1   0.8576  0.2985  0.9643  11.00000  0.05    0.52
Q61   1   0.9552  0.4586  0.8383  11.00000  0.05    0.52
Q62   1   0.8428  0.5607  0.3931  11.00000  0.05    0.52
Q63   1   0.7938  0.3632  0.8712  11.00000  0.05    0.52
Q64   1   0.9460  0.3287  0.7866  11.00000  0.05    0.52
Q65   1   0.5735  0.3621  0.5769  11.00000  0.05    0.52
Q66   1   0.6370  0.3409  0.2240  11.00000  0.05    0.51
Q67   1   0.6276  0.3998  0.3236  11.00000  0.05    0.51
Q68   1   0.4671  0.3139  0.3189  11.00000  0.05    0.51
Q69   1   0.4259  0.4405  0.3999  11.00000  0.05    0.51
Q70   1   0.9574  0.2434  0.9671  11.00000  0.05    0.51
Q71   1   1.1908  0.3249  1.0575  11.00000  0.05    0.51
Q72   1   0.4124  0.4114  0.3166  11.00000  0.05    0.50
Q73   1   0.7794  0.3941  1.0066  11.00000  0.05    0.50
Q74   1   0.8607  0.2794  0.8347  11.00000  0.05    0.50
Q75   1   0.4636  0.2851  0.0661  11.00000  0.05    0.50
Q76   1   0.3779  0.6135  0.2562  11.00000  0.05    0.50
Q77   1   1.0600  0.2844  0.7318  11.00000  0.05    0.49
Q78   1   0.4607  0.4395  0.5404  11.00000  0.05    0.49
Q79   1   0.7838  0.3854  0.7357  11.00000  0.05    0.49
Q80   1   1.0731  0.1314  0.7840  11.00000  0.05    0.49
Q81   1   0.8388  0.4146  0.5610  11.00000  0.05    0.48
Q82   1   1.0935  0.2158  0.8937  11.00000  0.05    0.48
Q83   1   0.6196  0.5801  0.3059  11.00000  0.05    0.48
Q84   1   0.5848  0.5026  0.1450  11.00000  0.05    0.48
Q85   1   0.6992  0.5318  0.6481  11.00000  0.05    0.48
Q86   1   1.1581  0.5087  1.0628  11.00000  0.05    0.48
Q87   1   0.9243  0.3951  0.8420  11.00000  0.05    0.47
Q88   1   1.1458  0.3398  1.1858  11.00000  0.05    0.47
Q89   1   0.9663  0.1182  0.8374  11.00000  0.05    0.47
Q90   1   0.5129  0.6002  0.3026  11.00000  0.05    0.47
Q91   1   0.9242  0.3657  0.8031  11.00000  0.05    0.46
Q92   1   0.2648  0.2849  0.2343  11.00000  0.05    0.46
Q93   1   0.9155  0.5656  0.8013  11.00000  0.05    0.46
Q94   1   0.3360  0.6403  0.1466  11.00000  0.05    0.46
Q95   1   0.8103  0.4722  0.5866  11.00000  0.05    0.46
Q96   1   0.2585  0.3299  0.3085  11.00000  0.05    0.46
Q97   1   1.2248  0.1797  1.1174  11.00000  0.05    0.45
Q98   1   1.1259  0.6838  0.7344  11.00000  0.05    0.45
Q99   1   0.5104  0.6023  0.2510  11.00000  0.05    0.45
Q100  1   1.0066  0.1953  0.7819  11.00000  0.05    0.44
;
_shelx_res_checksum              46942
_shelx_hkl_file
;
   0   1  -3 37447.4 651.429   1
   0  -1   3 37615.6 678.480   1
   0  -1   4 353.346 75.4727   1
   0  -1   5 89971.4 1418.09   1
   0  -1   6 50278.3 1159.68   1
   0  -1   7 27295.3 947.870   1
   0  -1   8 16717.6 767.709   1
   0  -1   9 13784.7 741.673   1
   0  -1  10 6953.70 560.515   1
   0   2  -4 56.1656 41.0758   1
   0   2  -5 10108.4 436.543   1
   0  -2   6 3.79787 36.8474   1
   0  -2   7 4559.59 364.219   1
   0  -2   8 26644.1 899.828   1
   0  -2   9 1114.81 205.596   1
   0  -2  10 1984.01 282.834   1
   0   3  -5 1286.05 166.969   1
   0   3  -6 13545.4 574.740   1
   0   3  -7 9300.84 521.287   1
   0   4  -6 1572.28 203.648   1
   0   4  -7 18079.2 682.513   1
   0   4  -8 28931.0 886.252   1
   0   5  -8 2353.74 234.549   1
   0   5  -9 38.5704 61.5252   1
  -1   0  -1-4.06317 14.0227   1
   1   0   1-4.94261 15.7397   1
   1   0   2 249963. 2318.38   1
  -1   0  -2 474428. 2857.87   1
  -1   0  -3 13.7293 26.9839   1
   1   0   3 7.78155 17.6409   1
   1   0   4 50088.9 1281.51   1
   1   0   5 26.1442 41.7270   1
   1   0   6 37682.8 1281.41   1
   1   0   7 23.0073 39.8698   1
   1   0   8 1231.57 255.846   1
  -1  -1  10 1526.98 233.711   1
  -1  -1   9 729.115 139.889   1
  -1  -1   8 12782.1 571.669   1
  -1  -1   7 27802.2 799.906   1
  -1  -1   6 1847.16 183.625   1
  -1  -1   5 21990.1 526.167   1
  -1   1  -2 14166.5 534.473   1
   1  -1   2 14917.9 566.381   1
   1  -1   3 75201.9 1343.42   1
  -1   1  -3 76486.5 1366.87   1
   1  -1   4 29450.1 909.977   1
  -1   1  -4 30730.5 926.743   1
  -1   1  -5 33851.6 1083.13   1
   1  -1   5 36004.6 1096.34   1
   1  -1   6 7888.59 570.016   1
   1  -1   7 19013.2 926.249   1
   1  -1   8 8678.17 658.321   1
   1  -1   9 122.719 75.3678   1
   1  -1  10 2246.27 375.730   1
   1  -1  11 10839.3 790.360   1
  -1  -2   8 5006.28 319.779   1
  -1   2  -3 3959.51 315.391   1
  -1   2  -4 918.361 162.924   1
  -1   2  -5 10595.2 605.063   1
   1  -2   5 10945.5 623.550   1
  -1   2  -6 10455.1 602.249   1
   1  -2   6 10398.8 627.412   1
  -1   2  -7 11874.5 723.437   1
   1  -2   7 10460.8 647.671   1
   1  -2   8 838.780 181.312   1
   1  -2   9 5072.34 506.619   1
   1  -2  10 8446.71 667.227   1
  -1   3  -5 7016.07 480.876   1
  -1   3  -6 13162.3 697.740   1
  -1   3  -7 1121.94 220.949   1
  -1   3  -8 21512.7 980.492   1
   1   4  -6 25117.4 605.742   1
  -1   4  -6 4703.42 426.170   1
  -1   4  -7 6215.51 500.870   1
  -1   4  -8 4279.42 406.902   1
  -1   4  -9 8141.94 560.484   1
   1   5  -8 16.2959 18.3310   1
   1   5  -7 10064.6 409.809   1
  -1   5  -8 8748.29 579.545   1
  -1   5  -9 96.3162 71.8766   1
  -2   0   0 26879.3 795.383   1
   2   0   0 28974.4 800.536   1
   2   0   1 18.4754 33.4553   1
  -2   0  -1-5.42350 23.1744   1
  -2   0  -2 21081.0 799.973   1
   2   0   2 19762.8 806.455   1
  -2   0  -3-13.8640 50.1505   1
   2   0   3-0.88009 23.9422   1
   2   0   4 71631.5 1729.85   1
  -2   0  -4 65793.6 1636.72   1
  -2   0  -5-37.7371 49.9586   1
   2   0   5 34.0212 54.7903   1
   2   0   6 10425.2 745.891   1
   2   0   7-5.48236 37.2857   1
   2   0   8 35997.9 1477.61   1
   2   0   9 11.9485 36.1018   1
   2   1  -2 60255.6 918.472   1
  -2  -1   2 66023.4 968.422   1
  -2  -1   1 77838.0 1219.88   1
   2   1  -1 71741.1 1211.74   1
  -2  -1   0 12.7014 10.3396   1
   2   1   0-1.69522 11.1522   1
  -2  -1  -1 127.765 80.1395   1
   2   1   1 69442.1 1404.26   1
   2  -1   2 72963.1 1570.24   1
  -2  -1  -2 74268.9 1577.04   1
  -2   1  -2 75712.1 1516.74   1
   2   1   2 72150.3 1574.06   1
   2  -1   3 75847.7 1671.42   1
  -2   1  -3 78507.1 1703.49   1
   2   1   3 78108.7 1741.42   1
  -2   1  -4 11593.4 685.540   1
   2  -1   4 10649.1 656.835   1
  -2   1  -5 5570.38 505.362   1
   2  -1   5 5822.71 507.759   1
   2  -1   6 1726.46 295.381   1
  -2   1  -6 1992.64 318.079   1
   2  -1   7 1591.10 280.561   1
  -2   1  -7 1386.62 295.441   1
   2  -1   8 114.235 112.690   1
   2  -1   9 7269.31 664.224   1
   2  -1  10 1873.00 365.340   1
   2  -1  11 590.169 204.332   1
   2   2  -2 38134.7 773.367   1
   2   2  -1-1.99886 7.20243   1
  -2   2  -3 45461.2 1293.39   1
  -2   2  -4 34258.7 1152.89   1
  -2   2  -5 7453.50 565.568   1
   2  -2   5 6448.73 549.796   1
   2  -2   6 2297.99 343.219   1
  -2   2  -6 2783.55 372.032   1
  -2   2  -7 105955. 2327.63   1
   2  -2   7 110458. 2410.27   1
   2  -2   8 712.842 190.246   1
  -2   2  -8 336.183 147.778   1
   2  -2   9 13008.2 894.661   1
   2  -2  10 1.56511 95.2060   1
   2  -2  11 11782.2 896.387   1
  -2   3  -5 5684.25 494.387   1
  -2   3  -6 75692.3 1950.64   1
  -2   3  -7 6611.62 584.582   1
  -2   3  -8 10344.3 727.098   1
  -2   3  -9 4609.78 503.766   1
  -2   4  -7 27406.0 1207.25   1
  -2   4  -8 3897.76 439.466   1
  -2   4  -9 9007.53 675.915   1
  -2   4 -10 615.384 174.757   1
  -2   5  -9 28256.1 1139.81   1
  -2   5 -10 49.5231 72.5649   1
  -3   0   1-13.4737 35.4554   1
   3   0   0-21.6844 40.5097   1
  -3   0   0-16.3489 28.9196   1
  -3   0  -1 5.82945 25.0011   1
   3   0   1-2.93274 10.5675   1
   3   0   2 5714.43 490.313   1
  -3   0  -2 4999.03 478.751   1
  -3   0  -3 14.4801 34.5109   1
   3   0   3 56.4602 83.8219   1
  -3   0  -4 5419.56 531.944   1
   3   0   4 5232.89 540.524   1
  -3   0  -5-1.40564 33.9764   1
   3   0   5-7.59167 28.4280   1
   3   0   6 88030.4 2467.02   1
  -3   0  -6 86974.9 2372.97   1
   3   0   7 49.1037 94.1521   1
   3   0   8 3.70218 40.0199   1
   3   0   9 15.3752 31.7350   1
   3   0  10 8110.06 843.215   1
  -3  -1   4 40299.6 932.295   1
  -3  -1   3 7656.26 404.720   1
   3   1  -2 29254.3 862.904   1
  -3  -1   2 29056.9 865.958   1
   3   1  -1 78887.0 1558.46   1
  -3  -1   1 79512.0 1513.13   1
  -3  -1   0 41523.4 1213.85   1
   3   1   0 40050.6 1213.73   1
   3   1   1 61827.4 1526.43   1
  -3  -1  -1 63658.4 1594.97   1
  -3   1  -1 64932.6 1703.65   1
  -3   1  -2 8193.30 614.260   1
   3  -1   2 9790.41 676.951   1
   3   1   2 10013.9 689.955   1
  -3  -1  -2 9601.67 622.073   1
  -3   1  -3 9244.42 677.513   1
   3  -1   3 9158.13 666.456   1
  -3  -1  -3 9252.34 672.703   1
   3   1   4 53940.6 1807.28   1
   3  -1   4 54148.4 1702.72   1
  -3   1  -4 52144.7 1644.16   1
  -3  -1  -4 51920.7 1707.80   1
   3  -1   5 11803.1 805.534   1
   3   1   5 11045.8 888.320   1
  -3   1  -5 12386.0 856.467   1
   3   1   6 575.903 236.012   1
  -3   1  -6 604.415 191.993   1
   3  -1   6 631.182 196.222   1
   3  -1   7 56610.9 1968.99   1
  -3   1  -7 57198.9 1977.64   1
   3  -1   8 1208.06 285.708   1
  -3   1  -8 1274.19 331.853   1
   3  -1   9 9692.60 868.116   1
   3  -1  10 81.6034 86.5968   1
   3  -1  11 217.362 183.286   1
  -3  -2   4 40605.9 779.768   1
   3   2  -3 75535.2 1301.79   1
  -3  -2   3 74203.7 1237.47   1
   3   2  -2 57776.8 1257.39   1
  -3  -2   2 60933.1 1242.78   1
  -3  -2   1 90735.1 1701.83   1
   3   2  -1 89902.1 1691.39   1
   3   2   0 520.010 157.168   1
  -3  -2   0 587.842 139.302   1
   3   2   1 115892. 2207.03   1
  -3  -2  -1 117220. 2251.81   1
   3   2   2-18.0201 67.6888   1
  -3   2  -3 74072.5 1962.54   1
  -3   2  -4 46276.0 1531.31   1
  -3   2  -5 25355.9 1209.72   1
   3  -2   5 23388.8 1183.65   1
  -3   2  -6 3276.55 451.287   1
   3  -2   6 3041.48 417.004   1
  -3   2  -7 6262.46 666.350   1
   3  -2   7 6445.20 655.266   1
   3  -2   8 82.7268 44.3494   1
  -3   2  -8 170.901 121.781   1
   3  -2   9 66173.0 2210.74   1
  -3   2  -9 65568.2 2230.60   1
   3  -2  10-34.3506 29.1740   1
   3  -2  11 115.910 124.348   1
   3   3  -4 227876. 2051.82   1
   3   3  -3 37547.0 978.015   1
   3   3  -2 8228.50 533.698   1
  -3   3  -5 10323.8 784.044   1
  -3   3  -6 3681.15 486.693   1
  -3   3  -7 1175.92 287.652   1
  -3   3  -8 12343.9 912.988   1
  -3   3  -9 2127.50 356.396   1
  -3   3 -10 29136.7 1400.84   1
   3   4  -5 3676.79 239.025   1
   3   4  -4 5.82341 21.3087   1
  -3   4  -7 4529.51 543.728   1
  -3   4  -8-31.0134 79.2162   1
  -3   4  -9 2011.30 357.254   1
  -3   4 -10 502.009 153.049   1
  -3   4 -11-12.2436 48.0285   1
   3   5  -6 4884.70 279.797   1
  -3   5  -9 352.534 169.873   1
  -3   5 -10-5.34839 35.4044   1
  -4   0   1 6.30271 28.3653   1
  -4   0   0 206939. 3125.64   1
   4   0   0 204774. 3151.59   1
   4   0   1 17.2448 24.8367   1
  -4   0  -1-3.84806 29.9531   1
   4   0   2 392.150 135.236   1
  -4   0  -2 505.438 150.077   1
   4   0   3 42.8413 90.3354   1
  -4   0  -3-11.8816 45.4098   1
   4   0   4 37473.4 1593.97   1
  -4   0  -4 39075.8 1602.59   1
   4   0   5 27.1715 124.358   1
  -4   0  -5 18.9772 61.6369   1
   4   0   6 1774.23 406.137   1
  -4   0  -6 2338.97 415.719   1
   4   0   7-38.3156 102.044   1
  -4   0  -7-37.2306 94.8597   1
   4   0   8 7110.87 815.078   1
   4   0   9 94.0320 133.292   1
   4   0  10 10416.4 975.246   1
   4   0  11-15.8022 89.1059   1
  -4  -1   4 9391.33 565.623   1
  -4  -1   3 13761.4 697.326   1
  -4  -1   2 11248.1 661.732   1
   4   1  -2 10204.5 641.999   1
  -4  -1   1 23284.1 983.557   1
   4   1  -1 25063.1 1056.40   1
  -4  -1   0 223.376 99.2823   1
   4   1   0 201.027 86.8129   1
   4   1   1 23992.5 1093.31   1
  -4  -1  -1 25266.4 1138.04   1
   4   1   2 4356.49 495.079   1
  -4   1  -2 3728.96 432.983   1
   4  -1   2 4327.97 483.178   1
  -4  -1  -2 3369.23 441.623   1
  -4   1  -3 16233.0 989.885   1
   4   1   3 16471.4 982.341   1
  -4  -1  -3 13825.4 896.266   1
   4  -1   3 14886.0 943.591   1
   4   1   4 3487.21 470.403   1
  -4  -1  -4 2896.73 427.186   1
   4  -1   4 2804.95 423.908   1
  -4   1  -4 2764.12 420.156   1
  -4   1  -5 41360.6 1714.15   1
   4   1   5 40259.3 1772.77   1
  -4  -1  -5 40404.7 1728.63   1
   4  -1   5 38524.7 1692.07   1
  -4   1  -6 21886.6 1306.01   1
   4   1   6 20764.9 1308.17   1
  -4  -1  -6 22476.6 1365.91   1
   4  -1   6 22736.1 1334.36   1
   4  -1   7 1419.98 347.464   1
  -4   1  -7 1465.95 325.216   1
   4   1   7 1577.89 376.759   1
  -4   1  -8 134.708 121.576   1
   4   1   8 103.876 173.011   1
   4  -1   8 162.861 148.458   1
  -4   1  -9 16421.2 1244.57   1
   4  -1   9 14890.5 1182.48   1
   4  -1  10 4414.90 638.162   1
   4  -1  11 827.226 299.263   1
   4  -1  12 47.5341 114.738   1
  -4  -2   6 11.6211 24.0549   1
  -4  -2   5 13061.2 527.845   1
  -4  -2   4 8332.78 473.477   1
   4   2  -3 11940.4 635.138   1
  -4  -2   3 12555.1 645.559   1
   4   2  -2 279.825 114.028   1
  -4  -2   2 561.985 142.536   1
   4   2  -1 38088.0 1278.39   1
  -4  -2   1 34260.5 1143.11   1
   4   2   0 29335.8 1186.80   1
  -4  -2   0 31379.7 1183.36   1
   4   2   1 54363.5 1747.80   1
  -4  -2  -1 51342.7 1650.11   1
   4   2   2 1157.19 254.582   1
  -4  -2  -2 820.109 226.898   1
  -4   2  -3 31911.5 1437.71   1
   4   2   3 32875.0 1558.23   1
  -4  -2  -3 29502.7 1406.11   1
  -4   2  -4 17474.1 1041.20   1
   4   2   4 17874.3 1185.20   1
   4  -2   5 2748.57 431.218   1
  -4   2  -5 2865.99 439.808   1
  -4   2  -6 46.7381 43.4511   1
   4  -2   6 199.685 52.2333   1
  -4   2  -7 24918.3 1411.26   1
   4  -2   7 23992.8 1432.88   1
   4  -2   8 140.287 101.029   1
  -4   2  -8 141.957 67.5729   1
   4  -2   9 529.888 226.624   1
  -4   2  -9 173.011 96.1937   1
   4  -2  10 4709.45 679.217   1
  -4   2 -10 4912.68 654.319   1
   4  -2  11 11210.1 1066.65   1
   4  -2  12 435.940 249.655   1
   4   3  -4 14629.2 648.808   1
   4   3  -3 675.492 160.906   1
   4   3  -2 29365.2 1095.50   1
   4   3  -1 14.4047 7.49169   1
   4   3   0 800.386 232.835   1
  -4   3  -5 5056.34 587.554   1
  -4   3  -6 60810.9 2165.60   1
  -4   3  -7 460.931 199.140   1
  -4   3  -8 2076.31 410.774   1
  -4   3  -9 95.1828 95.4589   1
  -4   3 -10 9788.18 887.237   1
  -4   3 -11 162.641 134.464   1
   4   4  -5 2324.93 227.132   1
   4   4  -4 12250.4 633.615   1
   4   4  -3 21232.3 980.596   1
  -4   4  -7 4130.98 573.112   1
  -4   4  -8 4827.05 604.362   1
  -4   4  -9 1996.68 415.483   1
  -4   4 -10 4893.13 590.633   1
  -4   4 -11 4751.92 576.504   1
   4   5  -6 4472.44 278.696   1
   4   5  -5 51693.5 1340.22   1
   4   6  -7 1.24325 6.01023   1
  -5   0   1 15.8651 26.1970   1
  -5   0   0 3.08059 35.9688   1
   5   0   0 20.0807 43.1130   1
   5   0   1-27.1053 37.2329   1
  -5   0  -1 1.65605 14.6166   1
  -5   0  -2 228316. 3815.62   1
   5   0   2 221394. 4089.79   1
  -5   0  -3 12.3690 82.5258   1
   5   0   3 49.3654 11.4108   1
  -5   0  -4 58426.9 2154.93   1
   5   0   4 55837.9 2107.06   1
   5   0   5-55.1460 100.812   1
  -5   0  -5-14.5713 59.5345   1
  -5   0  -6 10680.2 970.310   1
   5   0   6 10466.7 999.385   1
   5   0   7 17.2310 63.3425   1
  -5   0  -7-4.82475 47.6105   1
   5   0   8 11250.2 1112.47   1
  -5   0  -8 13062.3 1180.69   1
   5   0   9 193.583 199.290   1
   5   0  10 18131.9 1415.56   1
   5   0  11-23.5332 74.7837   1
  -5  -1   5 50886.7 1477.17   1
  -5  -1   4 17642.5 887.767   1
  -5  -1   3 72362.5 1839.53   1
  -5  -1   2 40066.2 1449.56   1
   5   1  -2 37143.5 1400.57   1
  -5  -1   1 703.463 193.363   1
   5   1  -1 767.694 178.428   1
   5   1   0 4238.57 528.900   1
  -5  -1   0 4595.87 508.449   1
  -5  -1  -1 357.143 163.467   1
   5   1   1 206.843 125.608   1
  -5   1  -1 346.978 170.315   1
   5  -1   2 19758.6 1188.83   1
  -5   1  -2 17306.2 1114.03   1
   5   1   2 20256.9 1136.73   1
  -5  -1  -2 18589.2 1133.16   1
   5   1   3 57881.3 2116.44   1
  -5   1  -3 59716.8 2132.77   1
   5  -1   3 57896.7 2080.36   1
  -5  -1  -3 56522.4 2056.36   1
   5  -1   4 3913.45 557.611   1
   5   1   4 4883.85 667.058   1
  -5  -1  -4 4467.53 554.055   1
  -5   1  -4 4341.54 575.106   1
   5  -1   5 50929.2 2085.49   1
   5   1   5 49622.7 2207.97   1
  -5   1  -5 50419.2 2068.94   1
  -5  -1  -6 573.781 209.398   1
   5  -1   6 90.5654 132.206   1
  -5   1  -6 619.752 212.833   1
   5   1   6 724.077 250.309   1
   5  -1   7 15897.7 1245.89   1
   5   1   7 12587.8 1191.19   1
  -5   1  -7 13149.0 1131.61   1
  -5  -1  -7 14180.1 1218.11   1
   5   1   8 19028.2 1451.36   1
  -5   1  -8 18758.3 1397.20   1
   5  -1   8 20637.8 1489.02   1
   5  -1   9-13.5968 37.9497   1
  -5   1  -9-18.4233 92.9186   1
   5   1   9 5.34206 81.6662   1
   5  -1  10 4914.45 756.840   1
  -5   1 -10 5114.70 743.653   1
   5  -1  11 24167.7 1661.98   1
   5  -1  12-44.9110 109.401   1
  -5  -2   8 2796.56 207.365   1
  -5  -2   7 5501.67 359.183   1
  -5  -2   6 12052.3 593.928   1
  -5  -2   5 3578.98 364.190   1
  -5  -2   4 4958.64 455.641   1
   5   2  -3 25.7224 23.0753   1
  -5  -2   3 46.1628 53.5754   1
   5   2  -2 93.3304 70.5730   1
  -5  -2   2 444.536 150.274   1
  -5  -2   1 44914.4 1559.42   1
   5   2  -1 45506.9 1582.25   1
   5   2   0 2209.91 385.944   1
  -5  -2   0 2362.83 363.258   1
   5   2   1 23386.2 1276.88   1
  -5  -2  -1 23716.7 1193.94   1
   5   2   2 145.499 139.680   1
  -5  -2  -2 284.081 160.050   1
   5   2   3 74.4267 88.9900   1
  -5  -2  -3 3.69459 50.2540   1
   5   2   4 12157.0 1005.44   1
  -5   2  -4 10627.5 906.279   1
  -5  -2  -4 10759.3 954.242   1
  -5   2  -5 17550.8 1173.40   1
   5   2   5 17899.7 1342.72   1
   5  -2   5 14128.3 1149.90   1
  -5  -2  -5 14876.7 1172.99   1
   5  -2   6 15206.0 1208.17   1
  -5   2  -6 15076.7 1131.63   1
  -5   2  -7 1799.46 420.551   1
   5  -2   7 1970.39 419.360   1
   5  -2   8 3467.28 596.741   1
  -5   2  -8 3084.04 575.133   1
   5  -2   9 339.666 160.103   1
  -5   2  -9 691.367 270.743   1
   5  -2  10 8680.03 1000.09   1
  -5   2 -10 7239.09 855.129   1
  -5   2 -11-157.802 175.392   1
   5  -2  11 14.1585 84.7556   1
   5  -2  12 1134.92 365.424   1
  -5  -3   5 6394.33 440.616   1
   5   3  -4 1250.82 229.516   1
  -5  -3   4 1142.77 210.593   1
   5   3  -3 5339.25 495.234   1
  -5  -3   3 5274.96 491.561   1
   5   3  -2 6715.33 602.815   1
  -5  -3   2 6642.24 596.050   1
  -5  -3   1 2731.22 394.438   1
   5   3  -1 2170.78 360.220   1
   5   3   0 168835. 3442.50   1
  -5  -3   0 176861. 3335.04   1
   5   3   1 689.197 242.093   1
  -5  -3  -1 412.045 169.079   1
   5   3   2 9354.82 890.533   1
  -5   3  -6 21898.1 1401.19   1
  -5   3  -7 6473.77 768.383   1
  -5   3  -8 10351.6 1013.01   1
  -5   3  -9 524.342 223.999   1
  -5   3 -10 54.0059 95.3333   1
  -5   3 -11 2072.64 414.898   1
  -5   3 -12-22.0083 74.9208   1
   5   4  -5 36699.3 1092.24   1
   5   4  -4 6.26728 33.2409   1
   5   4  -3 43856.2 1506.35   1
   5   4  -2 31823.0 1393.67   1
   5   4  -1 3714.11 513.948   1
  -5   4  -8 4064.44 625.245   1
  -5   4  -9 15812.1 1211.27   1
  -5   4 -10 9808.08 916.783   1
  -5   4 -11 2819.69 464.002   1
   5   5  -6 1266.06 168.042   1
   5   5  -5 3045.60 335.526   1
   5   5  -4-29.1670 49.4259   1
   5   6  -6 16511.7 709.382   1
  -6   0   1 9.84398 49.1494   1
   6   0   0 279259. 4646.89   1
  -6   0   0 277001. 4678.89   1
   6   0   1 29.8503 24.8397   1
  -6   0  -1-36.3734 84.6011   1
  -6   0  -2 2075.75 435.767   1
   6   0   2 2574.22 444.366   1
  -6   0  -3-39.3381 88.5863   1
   6   0   3-47.6157 124.175   1
   6   0   4 21074.4 1442.85   1
  -6   0  -4 21061.9 1422.11   1
   6   0   5-35.3161 137.249   1
  -6   0  -5 19.2927 73.7338   1
   6   0   6 54276.3 2406.09   1
  -6   0  -6 48032.3 2149.90   1
   6   0   7 31.5418 53.6875   1
  -6   0  -7-68.9691 139.876   1
  -6   0  -8 27699.1 1872.14   1
   6   0   8 28077.0 1857.28   1
  -6   0  -9-45.3335 121.255   1
   6   0   9-42.9286 117.969   1
   6   0  10-120.647 152.021   1
   6   0  11 107.610 138.370   1
  -6  -1   5 14329.0 866.065   1
  -6  -1   4 2930.13 385.077   1
  -6  -1   3 47821.9 1726.43   1
  -6  -1   2 13706.3 953.517   1
   6   1  -1 20897.9 1244.40   1
  -6  -1   1 21055.6 1186.13   1
  -6  -1   0 5165.19 600.047   1
   6   1   0 5466.11 654.515   1
  -6   1  -1 10509.7 975.774   1
  -6  -1  -1 9018.70 831.363   1
   6   1   1 9498.24 825.051   1
   6   1   2 3869.79 545.045   1
  -6  -1  -2 3164.89 540.672   1
  -6   1  -2 3456.17 559.658   1
   6  -1   2 3797.09 589.202   1
   6   1   3 24679.5 1469.55   1
  -6   1  -3 21781.8 1447.34   1
  -6  -1  -3 24806.8 1483.28   1
   6  -1   3 26999.5 1550.27   1
   6  -1   4 3496.69 601.446   1
   6   1   4 3875.51 631.293   1
  -6   1  -4 4677.95 614.549   1
  -6  -1  -4 4436.62 603.045   1
   6   1   5 15511.4 1318.03   1
  -6   1  -5 15670.7 1240.83   1
   6  -1   5 16646.3 1280.00   1
  -6  -1  -5 16565.6 1269.81   1
   6  -1   6 9739.30 1029.30   1
   6   1   6 11195.0 1101.14   1
  -6   1  -6 10249.4 1049.43   1
  -6  -1  -6 9776.53 1041.96   1
   6  -1   7 8934.82 999.113   1
   6   1   7 9247.69 1070.12   1
  -6   1  -7 9054.47 1009.44   1
  -6  -1  -7 8933.84 1057.55   1
   6  -1   8 10287.0 1143.92   1
   6   1   8 8848.07 1053.65   1
  -6   1  -8 9064.09 1010.90   1
  -6   1  -9 6208.69 875.343   1
   6  -1   9 6462.87 897.145   1
   6   1   9 5684.96 882.529   1
   6  -1  10 4075.47 734.968   1
  -6   1 -10 3900.56 690.434   1
   6  -1  11 1184.78 435.223   1
  -6  -2   8 14963.9 668.161   1
  -6  -2   7 2710.18 309.284   1
  -6  -2   6 1755.79 254.219   1
  -6  -2   5 4445.00 449.389   1
  -6  -2   4 4018.30 456.636   1
  -6  -2   3 50425.6 1692.15   1
   6   2  -3 47766.3 1728.58   1
   6   2  -2 16013.2 1043.61   1
  -6  -2   2 17580.2 1052.66   1
   6   2  -1 3439.77 501.440   1
  -6  -2   1 3440.86 476.857   1
   6   2   0 224.587 127.282   1
  -6  -2   0 653.377 217.367   1
   6   2   1 309.316 170.617   1
  -6  -2  -1 57.9113 77.4320   1
   6   2   2 12602.3 1077.52   1
  -6  -2  -2 10427.8 930.828   1
   6   2   3 79138.9 2781.55   1
  -6  -2  -3 81723.4 2642.92   1
  -6  -2  -4 82.0332 144.808   1
  -6   2  -4 78.5238 146.285   1
   6   2   4 68.8432 121.191   1
  -6   2  -5 5744.65 741.882   1
   6   2   5 6760.02 826.279   1
  -6  -2  -5 6040.80 789.234   1
  -6   2  -6 45.7048 15.0129   1
  -6  -2  -6-112.018 145.181   1
   6  -2   6-27.1987 50.9245   1
   6   2   6 25.6956 100.797   1
  -6   2  -7 2421.07 539.881   1
   6  -2   7 2274.77 498.687   1
  -6   2  -8 18843.9 1468.17   1
   6  -2   8 19862.7 1543.08   1
  -6   2  -9 471.965 191.920   1
   6  -2   9 1100.42 402.820   1
  -6   2 -10 56.5411 124.760   1
   6  -2  10 50.9021 59.5656   1
  -6   2 -11 6105.13 843.954   1
   6  -2  11 6909.33 980.685   1
  -6  -3   6 2748.06 314.726   1
  -6  -3   5 1032.54 231.279   1
  -6  -3   4 2362.28 342.446   1
   6   3  -4 2238.93 347.217   1
   6   3  -3 10527.1 807.846   1
  -6  -3   3 9663.86 740.803   1
   6   3  -2 40667.2 1604.99   1
  -6  -3   2 38450.6 1563.96   1
   6   3  -1 9216.32 815.192   1
  -6  -3   1 8502.99 777.620   1
  -6  -3   0 12.7072 19.6232   1
   6   3   0 1.88051 48.3903   1
   6   3   1 7107.76 818.426   1
  -6  -3  -1 8252.40 819.147   1
   6   3   2 73046.6 2591.90   1
  -6  -3  -2 70546.9 2510.88   1
  -6  -3  -3 4395.67 680.565   1
   6   3   3 5103.69 774.336   1
   6   3   4 57.7578 140.768   1
  -6   3  -6 2820.57 578.099   1
  -6   3  -7 4656.93 689.423   1
  -6   3  -8 10272.0 1053.62   1
  -6   3  -9 2760.62 547.823   1
  -6   3 -10 11209.4 1066.28   1
  -6   3 -11 155.385 127.071   1
  -6   3 -12 32.8407 122.488   1
   6   4  -5 30442.9 1143.68   1
   6   4  -4 12980.8 864.774   1
   6   4  -3 40353.9 1589.62   1
   6   4  -2 83.5603 68.1481   1
   6   4  -1 7.54603 62.3011   1
   6   4   0 31306.3 1735.70   1
   6   4   1-8.07967 41.1724   1
  -6   4  -9 19.1253 78.1410   1
  -6   4 -10 706.520 282.291   1
  -6   4 -11 356.810 194.176   1
   6   5  -6 29.7755 25.0182   1
   6   5  -5 11081.6 718.667   1
   6   5  -4 13.5555 37.6004   1
   6   5  -3 11840.2 952.695   1
   6   5  -2 34.4253 90.5887   1
   6   6  -6 5932.89 446.408   1
   6   6  -5 4268.20 491.102   1
  -7   0   1-49.0980 37.5291   1
  -7   0   0 21.9291 21.5056   1
  -7   0  -1 12.1079 72.4802   1
   7   0   1 28.6627 86.9228   1
  -7   0  -2 22323.7 1477.61   1
   7   0   2 21438.5 1460.47   1
   7   0   3 46.4395 126.785   1
  -7   0  -3-26.7985 83.2792   1
   7   0   4 927.021 312.519   1
  -7   0  -4 1115.74 333.331   1
   7   0   5 42.2094 119.006   1
  -7   0  -5-230.113 204.732   1
   7   0   6 26717.8 1878.44   1
  -7   0  -6 25821.2 1723.74   1
   7   0   7-6.81520 47.5545   1
  -7   0  -7-54.7291 144.517   1
  -7   0  -8 4456.77 790.157   1
   7   0   8 4113.68 792.081   1
  -7   0  -9 14.6540 99.6621   1
   7   0   9-43.8618 60.3549   1
  -7  -1   4 17452.6 1108.79   1
  -7  -1   3 10326.7 890.291   1
  -7  -1   2 1561.21 348.869   1
  -7  -1   1 15620.1 1123.78   1
   7   1  -1 18212.4 1240.55   1
  -7  -1   0 17039.7 1208.12   1
   7   1   0 17433.3 1248.70   1
  -7  -1  -1 9007.34 868.287   1
   7   1   1 7370.75 875.009   1
   7   1   2 916.594 284.573   1
  -7  -1  -2 977.568 306.822   1
  -7   1  -2 1038.74 340.469   1
   7   1   3 13906.4 1247.90   1
   7  -1   3 15124.9 1277.95   1
  -7   1  -3 13186.1 1238.49   1
  -7  -1  -3 13334.1 1169.74   1
   7   1   4 16374.3 1347.64   1
  -7   1  -4 15088.0 1246.34   1
  -7  -1  -4 14690.7 1297.99   1
   7  -1   4 16174.7 1368.47   1
   7  -1   5 1460.14 438.368   1
  -7   1  -5 1296.65 387.543   1
  -7  -1  -5 1271.15 393.820   1
   7   1   5 1918.52 472.172   1
   7  -1   6 3872.64 690.836   1
   7   1   6 4020.92 765.781   1
  -7   1  -6 4287.26 711.891   1
  -7  -1  -6 4535.13 723.081   1
   7   1   7 17287.7 1528.48   1
  -7   1  -7 17399.5 1483.84   1
  -7  -1  -7 17480.3 1564.69   1
   7  -1   7 19792.8 1607.89   1
   7  -1   8 324.251 258.270   1
  -7   1  -8 88.3088 107.508   1
  -7  -1  -8 195.536 182.200   1
   7   1   8 373.695 271.264   1
   7  -1   9 1930.58 548.030   1
  -7   1  -9 1718.29 488.147   1
  -7  -2   7 3128.31 394.359   1
  -7  -2   6 2670.20 389.961   1
  -7  -2   5 15954.9 966.961   1
  -7  -2   4 2501.64 406.508   1
  -7  -2   3 20343.5 1196.82   1
  -7  -2   2 11984.3 977.993   1
   7   2  -2 11435.7 975.208   1
   7   2  -1 31807.2 1665.81   1
  -7  -2   1 29281.2 1515.05   1
   7   2   0 2.14924 58.4682   1
  -7  -2   0 80.3964 137.367   1
   7   2   1 24627.9 1502.91   1
  -7  -2  -1 23420.5 1454.07   1
   7   2   2 7518.99 878.455   1
  -7  -2  -2 6676.79 795.454   1
   7   2   3 14729.1 1255.86   1
  -7  -2  -3 14482.0 1173.58   1
   7   2   4 3378.42 621.471   1
  -7   2  -4 3210.40 590.822   1
  -7  -2  -4 2637.33 544.483   1
   7   2   5 11829.0 1261.43   1
  -7   2  -5 9577.39 1044.79   1
  -7  -2  -5 9615.62 1060.64   1
  -7   2  -6 1904.85 460.771   1
   7  -2   6 2017.67 474.528   1
   7   2   6 2037.43 521.308   1
  -7  -2  -6 2250.15 538.567   1
  -7   2  -7 6439.57 890.117   1
   7   2   7 5611.36 942.193   1
   7  -2   7 6859.53 935.813   1
   7   2   8 185.005 247.139   1
  -7   2  -8 94.8404 71.1380   1
   7  -2   8 178.194 185.032   1
  -7   2  -9 15850.9 1422.84   1
   7  -2   9 18088.1 1627.71   1
  -7  -3   6 7.61523 70.5594   1
  -7  -3   5 9.90715 27.8669   1
  -7  -3   4 54850.8 1777.30   1
   7   3  -4 57672.4 1917.61   1
   7   3  -3 2590.02 463.582   1
  -7  -3   3 2433.78 413.789   1
   7   3  -2 1378.97 341.292   1
  -7  -3   2 1344.14 312.704   1
   7   3  -1 320.115 130.185   1
  -7  -3   1 398.318 139.899   1
   7   3   0 26932.4 1563.34   1
  -7  -3   0 28581.6 1556.80   1
  -7  -3  -1 65.4232 73.1600   1
   7   3   1 107.890 132.873   1
  -7  -3  -2 215.607 176.346   1
   7   3   2 335.649 161.613   1
  -7  -3  -3 132.037 135.906   1
   7   3   3 80.8595 141.914   1
   7   3   4 43759.5 2435.23   1
  -7  -3  -4 42167.4 2224.07   1
   7   3   5 40.3136 86.4475   1
  -7   3  -7-26.6130 73.8191   1
  -7   3  -8 14624.7 1375.89   1
  -7   3  -9-12.8532 69.4702   1
   7   4  -5 4869.43 500.076   1
   7   4  -4 379.438 185.615   1
  -7  -4   4 276.896 139.846   1
   7   4  -3 8382.55 804.783   1
  -7  -4   3 8032.69 792.250   1
   7   4  -2 5444.76 684.315   1
  -7  -4   2 6610.24 747.472   1
   7   4  -1 21184.1 1413.56   1
  -7  -4   1 20346.3 1374.02   1
   7   4   0 2.44000 69.7843   1
  -7  -4   0 144.971 152.665   1
   7   4   1 17406.2 1388.18   1
   7   4   2-24.4507 144.011   1
   7   5  -5 2885.95 408.434   1
   7   5  -4 1911.14 369.602   1
   7   5  -3 4399.69 627.599   1
   7   5  -2 507.336 249.041   1
   7   5  -1 212.202 172.597   1
   7   6  -6 3.77980 30.0714   1
   7   6  -5 691.682 202.329   1
   7   6  -4 3634.93 570.061   1
  -8   0   1 15.0138 26.5029   1
  -8   0   0 1445.57 435.193   1
   8   0   1-2.84383 61.4827   1
  -8   0  -1 83.4697 154.527   1
   8   0   2 386.240 209.811   1
  -8   0  -2 90.0551 131.435   1
  -8   0  -3 20.2939 90.4679   1
   8   0   3-11.9593 74.6384   1
   8   0   4 24309.3 1738.96   1
  -8   0  -4 26715.9 1854.19   1
   8   0   5 54.7528 179.959   1
  -8   0  -5-72.7371 147.700   1
   8   0   6 21616.2 1769.12   1
  -8   0  -6 19981.1 1650.80   1
   8   0   7-67.7625 105.544   1
  -8   0  -7 67.3241 162.732   1
  -8  -1   4 12482.3 1131.49   1
  -8  -1   3 2548.75 479.985   1
  -8  -1   2 13126.5 1112.05   1
  -8  -1   1 12527.9 1134.44   1
   8   1  -1 13162.4 1205.58   1
   8   1   0 1141.05 381.155   1
  -8  -1   0 1402.38 396.553   1
   8   1   1 19115.6 1482.02   1
  -8  -1  -1 20386.0 1528.05   1
   8   1   2 19806.4 1560.86   1
  -8   1  -2 23579.9 1786.31   1
  -8  -1  -2 19942.0 1537.53   1
   8   1   3 8105.21 965.004   1
  -8   1  -3 7626.28 999.195   1
  -8  -1  -3 8067.83 961.798   1
   8   1   4 15069.7 1429.26   1
  -8   1  -4 14474.0 1340.28   1
  -8  -1  -4 13185.2 1294.94   1
   8  -1   4 15088.7 1426.45   1
   8   1   5 9150.05 1133.08   1
  -8   1  -5 9918.16 1131.76   1
  -8  -1  -5 8662.45 1041.31   1
   8  -1   5 9306.24 1163.11   1
   8  -1   6 6963.50 1016.62   1
   8   1   6 6428.83 996.313   1
  -8   1  -6 5904.10 917.929   1
  -8  -1  -6 6524.57 931.217   1
   8  -1   7 131.395 146.710   1
  -8  -1  -7 260.318 220.184   1
  -8  -2   6 201.488 144.790   1
  -8  -2   5 4285.25 563.634   1
  -8  -2   4 11588.7 969.416   1
  -8  -2   3 545.091 211.885   1
  -8  -2   2 18549.1 1293.13   1
   8   2  -2 18828.6 1362.50   1
   8   2  -1 62291.8 2508.05   1
  -8  -2   1 65021.9 2485.06   1
   8   2   0 20029.6 1516.12   1
  -8  -2   0 21500.3 1473.42   1
   8   2   1 43155.6 2205.75   1
  -8  -2  -1 40046.4 2094.23   1
   8   2   2 10118.3 1037.05   1
  -8  -2  -2 7939.88 909.598   1
  -8  -2  -3 2179.09 478.385   1
   8   2   3 2603.89 503.997   1
   8   2   4 19279.8 1611.33   1
  -8  -2  -4 18029.3 1532.31   1
  -8  -2  -5 1842.90 497.801   1
   8   2   5 1872.76 502.096   1
  -8   2  -5 2156.94 501.549   1
  -8  -2  -6 1875.44 506.355   1
  -8   2  -6 1131.43 385.400   1
   8   2   6 1016.65 439.933   1
  -8   2  -7 39128.4 2446.37   1
  -8  -3   6 44752.9 1606.14   1
  -8  -3   5 114.396 89.0079   1
  -8  -3   4 1491.75 350.392   1
   8   3  -3 1926.40 450.166   1
  -8  -3   3 1531.74 348.298   1
   8   3  -2 27607.6 1654.16   1
  -8  -3   2 22980.4 1385.78   1
   8   3  -1 7917.28 899.050   1
  -8  -3   1 6679.29 775.709   1
   8   3   0 613.229 252.543   1
  -8  -3   0 176.988 166.627   1
   8   3   1 5722.81 813.248   1
  -8  -3  -1 5554.95 791.802   1
   8   3   2 8614.33 979.452   1
  -8  -3  -2 7326.87 903.025   1
   8   3   3 872.163 338.215   1
  -8  -3  -3 270.507 213.053   1
  -8  -3  -4 5543.02 864.320   1
   8   3   4 6096.23 982.919   1
  -8  -3  -5 5119.70 878.955   1
   8   3   5 6714.25 1024.47   1
   8   3   6-4.27310 170.763   1
  -8  -4   5 12673.7 929.180   1
  -8  -4   4 5502.11 680.407   1
   8   4  -4 5273.96 668.114   1
  -8  -4   3 145.423 121.816   1
   8   4  -3 271.800 133.711   1
  -8  -4   2 2949.76 535.962   1
   8   4  -2 2626.10 526.286   1
   8   4  -1 30952.6 1796.91   1
  -8  -4   1 30189.3 1759.69   1
   8   4   0 11309.5 1151.86   1
  -8  -4   0 10815.5 1061.37   1
   8   4   1 55180.7 2737.05   1
  -8  -4  -1 51527.2 2453.32   1
   8   4   2 2215.39 564.184   1
  -8  -4  -2 1779.08 472.032   1
   8   4   3 26.2753 77.6968   1
   8   5  -5 8704.92 732.272   1
   8   5  -4 45.6792 61.7230   1
   8   5  -3 15451.4 1187.70   1
   8   5  -2-5.29450 84.2441   1
   8   5  -1 1003.35 382.781   1
   8   5   0 13.2601 20.6892   1
   8   6  -5 7.62665 63.1463   1
   8   6  -4 50377.0 2141.45   1
   8   6  -3 972.296 329.575   1
  -9   0   0-25.3936 119.802   1
  -9   0  -1-189.604 231.477   1
  -9   0  -2 5298.57 820.362   1
   9   0   2 4815.83 813.219   1
  -9   0  -3 3.47750 89.4848   1
   9   0   3 38.7682 118.451   1
   9   0   4 2290.30 568.534   1
  -9   0  -4 1958.22 562.428   1
  -9   0  -5-25.3851 123.965   1
  -9  -1   3 6295.98 826.518   1
  -9  -1   2 3060.30 596.058   1
  -9  -1   1 23406.3 1679.71   1
  -9  -1   0 9681.14 1084.56   1
   9   1   0 8566.53 1036.02   1
  -9  -1  -1 16795.7 1465.12   1
   9   1   1 13728.1 1363.82   1
   9   1   2 160.516 160.286   1
  -9  -1  -2 49.6613 20.6626   1
   9   1   3 7034.09 1000.77   1
  -9  -1  -3 6639.33 925.849   1
  -9   1  -3 7157.10 1045.28   1
   9   1   4 13527.9 1432.59   1
  -9   1  -4 11912.2 1303.92   1
  -9  -1  -4 11658.4 1297.08   1
   9  -1   4 10542.2 1305.90   1
  -9   1  -5-22.1940 119.956   1
  -9  -2   5 13987.4 1097.54   1
  -9  -2   4 2961.33 518.317   1
  -9  -2   3 11916.2 1091.70   1
  -9  -2   2 5000.61 743.140   1
   9   2  -2 5718.23 830.994   1
  -9  -2   1 8547.12 1000.89   1
   9   2  -1 9929.76 1081.93   1
   9   2   0-8.85620 80.3084   1
  -9  -2   0 59.7070 81.3155   1
   9   2   1 17179.2 1511.93   1
  -9  -2  -1 18031.2 1481.36   1
   9   2   2 8841.95 1103.98   1
  -9  -2  -2 8612.07 1006.93   1
   9   2   3 10349.4 1178.95   1
  -9  -2  -3 7433.91 996.519   1
   9   2   4 6733.62 991.087   1
  -9  -2  -4 7129.99 987.465   1
  -9  -3   6 11.2267 30.0284   1
  -9  -3   5 872.196 268.578   1
  -9  -3   4 43345.8 1891.80   1
  -9  -3   3 3655.50 573.329   1
   9   3  -3 3808.56 670.699   1
   9   3  -2 40.2989 16.7672   1
  -9  -3   2 81.7925 66.1658   1
   9   3  -1 1184.34 407.554   1
  -9  -3   1 350.471 237.135   1
   9   3   0 14108.7 1322.05   1
  -9  -3   0 13566.4 1251.71   1
   9   3   1 395.936 263.847   1
  -9  -3  -1 300.861 168.349   1
   9   3   2 2022.66 513.217   1
  -9  -3  -2 1616.31 459.839   1
  -9  -3  -3 4031.05 777.967   1
   9   3   3 4096.37 812.104   1
   9   3   4 32990.7 2351.43   1
  -9  -3  -4 28585.9 2143.53   1
  -9  -4   5 3831.27 563.129   1
  -9  -4   4 83.6316 117.439   1
   9   4  -4 6.24876 60.9737   1
   9   4  -3 771.418 282.168   1
  -9  -4   3 833.955 293.845   1
   9   4  -2 7573.87 891.860   1
  -9  -4   2 6310.66 844.059   1
   9   4  -1 11318.7 1171.40   1
  -9  -4   1 10354.1 1081.98   1
  -9  -4   0 902.386 335.672   1
   9   4   0 391.738 221.318   1
   9   4   1 12642.7 1343.61   1
  -9  -4  -1 11001.3 1220.34   1
   9   4   2 10441.0 1272.12   1
  -9  -4  -2 8692.15 1153.04   1
   9   4   3 10578.8 1399.35   1
  -9  -4  -3 7451.24 1137.21   1
   9   5  -5 3661.87 493.034   1
   9   5  -4 4243.10 627.752   1
   9   5  -3 1547.36 420.349   1
   9   5  -2 2022.06 512.254   1
   9   5  -1 14639.8 1439.00   1
   9   5   0 1903.09 782.151   1
   9   5   1-21.5750 60.2176   1
   9   6  -5-55.1581 92.2417   1
   9   6  -4 3643.73 598.392   1
   9   6  -3 204.655 172.138   1
   9   6  -2-18.2275 111.460   1
 -10   0  -1-8.30079 51.8057   1
 -10   0  -2 318.546 237.736   1
 -10  -1   2 6516.06 964.013   1
 -10  -1   1 12680.7 1336.48   1
 -10  -1   0 1432.82 460.824   1
 -10  -1  -1 7233.89 1099.76   1
  10   1   1 5923.52 941.879   1
  10   1   2 199.266 174.111   1
 -10  -1  -2 503.040 358.685   1
 -10  -2   4 1432.14 395.905   1
 -10  -2   3 13275.0 1241.23   1
 -10  -2   2 1987.03 511.475   1
 -10  -2   1 47.5946 56.0105   1
  10   2  -1 48.1337 142.333   1
  10   2   0 1105.17 337.095   1
 -10  -2   0 920.680 339.589   1
  10   2   1 1045.65 398.683   1
 -10  -2  -1 289.733 207.825   1
  10   2   2 1574.47 522.341   1
 -10  -2  -2 1539.01 484.439   1
 -10  -3   5 754.232 261.040   1
 -10  -3   4 314.614 176.435   1
 -10  -3   3 2077.02 460.506   1
 -10  -3   2 14621.0 1268.66   1
  10   3  -2 17859.6 1523.74   1
  10   3  -1 975.753 326.782   1
 -10  -3   1 894.948 283.149   1
  10   3   0 134.921 181.381   1
 -10  -3   0 80.1901 43.0418   1
  10   3   1 292.372 220.696   1
 -10  -3  -1 64.1526 139.780   1
 -10  -4   5 10548.3 992.042   1
 -10  -4   4 6168.53 786.097   1
 -10  -4   3 15234.0 1305.37   1
  10   4  -3 15535.7 1313.37   1
  10   4  -2 25.2192 68.1537   1
 -10  -4   2-2.84250 56.0993   1
  10   4  -1 1179.09 428.611   1
 -10  -4   1 420.983 192.736   1
  10   4   0 13419.3 1399.47   1
 -10  -4   0 11338.3 1254.90   1
 -10  -4  -1 1137.32 421.450   1
  10   4   1 288.212 189.847   1
  10   5  -4 2.33359 97.6986   1
  10   5  -3 6142.74 873.340   1
  10   5  -2 1032.84 402.159   1
  10   5  -1 31943.8 2291.73   1
  10   5   0-108.171 176.107   1
  10   6  -4 6148.04 855.478   1
  10   6  -3 707.172 295.522   1
  10   6  -2 73.7205 143.260   1
  10   6  -1 176.916 312.947   1
 -11  -1   1-25.2096 45.4186   1
 -11  -2   3 747.352 331.747   1
 -11  -2   2 254.945 189.898   1
 -11  -2   1 17088.4 1639.08   1
 -11  -3   5 1420.69 368.622   1
 -11  -3   4 209.856 152.537   1
 -11  -3   3 8.06315 124.401   1
 -11  -3   2 53.9080 136.074   1
  11   3  -2 251.128 252.938   1
  11   3  -1 1231.50 442.505   1
 -11  -3   1 863.089 314.773   1
 -11  -4   5 10358.3 1125.12   1
 -11  -4   4 62.9847 152.866   1
 -11  -4   3 19973.1 1628.28   1
  11   4  -3 21254.5 1670.88   1
  11   4  -2 5772.68 962.465   1
 -11  -4   2 5286.25 835.898   1
  11   5  -4 86.5162 133.815   1
  11   5  -3 31535.4 2057.91   1
  11   5  -2 460.966 234.392   1
  11   6  -4 30.8835 101.586   1
  11   6  -3 518.845 299.171   1
 -12  -3   4 1958.61 497.594   1
 -12  -4   4 3206.63 693.013   1
   0   0   0    0.00    0.00   0

TITL slav_p03_s1 in P2(1)/c
REM P2(1)/c (#14 in standard setting)
CELL 0.41106   8.276817   9.269947   8.689574  90.0000  90.3398  90.0000
ZERR    3.00   0.000200   0.001582   0.000292   0.0000   0.0027   0.0000
LATT  1
SYMM -x, y+1/2,-z+1/2
SFAC C H N O
UNIT 33.00 30.00 3.00 3.00
TREF
HKLF 4
END
;
_shelx_hkl_checksum              13134
loop_
_space_group_symop_operation_xyz
'x, y, z'
'-x, y+1/2, -z+1/2'
'-x, -y, -z'
'x, -y-1/2, z-1/2'
loop_
_atom_site_label
_atom_site_type_symbol
_atom_site_fract_x
_atom_site_fract_y
_atom_site_fract_z
_atom_site_U_iso_or_equiv
_atom_site_adp_type
_atom_site_occupancy
_atom_site_site_symmetry_order
_atom_site_calc_flag
_atom_site_refinement_flags_posn
_atom_site_refinement_flags_adp
_atom_site_refinement_flags_occupancy
_atom_site_disorder_assembly
_atom_site_disorder_group
Sr1 Sr 0.74939(10) 0.4095(2) 0.61605(13) 0.0156(9) Uani 1 1 d . . . . .
Si1 Si 0.5608(3) 0.4213(7) 0.2448(4) 0.009(2) Uani 1 1 d . . . . .
Si2 Si 1.0571(3) 0.3005(8) 0.9439(4) 0.013(2) Uani 1 1 d . . . . .
Al1 Al 1.0696(4) 0.5724(8) 0.7625(4) 0.020(3) Uani 1 1 d . . . . .
Al2 Al 0.4270(4) 0.1921(9) 0.4486(4) 0.017(3) Uani 1 1 d . . . . .
O1 O 0.7404(9) 0.4284(19) 0.3217(10) 0.0121(19) Uiso 1 1 d . . . . .
O2 O 0.9933(9) 0.4042(18) 0.8074(10) 0.0083(17) Uiso 1 1 d . . . . .
O3 O 1.0562(9) 0.132(2) 0.8861(10) 0.0123(19) Uiso 1 1 d . . . . .
O4 O 0.4417(10) 0.369(2) 0.3812(11) 0.016(2) Uiso 1 1 d . . . . .
O5 O 0.5639(9) 0.315(2) 0.1039(10) 0.0105(17) Uiso 1 1 d . . . . .
O6 O 1.2327(9) 0.356(2) 0.9994(10) 0.0133(19) Uiso 1 1 d . . . . .
O7 O 0.9263(9) 0.3126(17) 1.0809(9) 0.0094(17) Uiso 1 1 d . . . . .
O8 O 0.4965(9) 0.575(2) 0.1931(11) 0.015(2) Uiso 1 1 d . . . . .
loop_
_atom_site_aniso_label
_atom_site_aniso_U_11
_atom_site_aniso_U_22
_atom_site_aniso_U_33
_atom_site_aniso_U_23
_atom_site_aniso_U_13
_atom_site_aniso_U_12
Sr1 0.0084(5) 0.024(3) 0.0141(7) -0.0017(6) -0.0001(4) 0.0015(5)
Si1 0.0076(13) 0.011(8) 0.0096(18) 0.0033(19) -0.0022(12) 0.0012(15)
Si2 0.0076(13) 0.021(8) 0.0118(19) 0.0003(19) 0.0001(13) 0.0022(16)
Al1 0.0056(15) 0.045(10) 0.009(2) 0.002(2) 0.0011(14) -0.0032(18)
Al2 0.0101(15) 0.037(10) 0.0050(19) -0.001(2) 0.0017(13) -0.0009(19)
loop_
_atom_type_symbol
_atom_type_description
_atom_type_scat_dispersion_real
_atom_type_scat_dispersion_imag
_atom_type_scat_source
O O 0.0017 0.0018 'International Tables Vol C Tables 4.2.6.8 and 6.1.1.4'
Al Al 0.0192 0.0163 'International Tables Vol C Tables 4.2.6.8 and 6.1.1.4'
Si Si 0.0265 0.0226 'International Tables Vol C Tables 4.2.6.8 and 6.1.1.4'
Sr Sr 0.2429 1.2951 'International Tables Vol C Tables 4.2.6.8 and 6.1.1.4'
loop_
_geom_angle_atom_site_label_1
_geom_angle_atom_site_label_2
_geom_angle_atom_site_label_3
_geom_angle
_geom_angle_site_symmetry_1
_geom_angle_site_symmetry_3
_geom_angle_publ_flag
O7 Sr1 O1 87.1(4) 4_565 . ?
O7 Sr1 O3 106.4(4) 4_565 2_756 ?
O1 Sr1 O3 87.3(4) . 2_756 ?
O7 Sr1 O5 71.7(4) 4_565 4_566 ?
O1 Sr1 O5 90.0(4) . 4_566 ?
O3 Sr1 O5 176.8(3) 2_756 4_566 ?
O7 Sr1 O2 67.5(4) 4_565 . ?
O1 Sr1 O2 130.9(3) . . ?
O3 Sr1 O2 63.0(4) 2_756 . ?
O5 Sr1 O2 117.9(4) 4_566 . ?
O7 Sr1 O4 173.3(3) 4_565 3_666 ?
O1 Sr1 O4 86.6(4) . 3_666 ?
O3 Sr1 O4 75.6(4) 2_756 3_666 ?
O5 Sr1 O4 105.9(4) 4_566 3_666 ?
O2 Sr1 O4 118.7(4) . 3_666 ?
O7 Sr1 O8 124.4(5) 4_565 3_666 ?
O1 Sr1 O8 127.3(3) . 3_666 ?
O3 Sr1 O8 116.1(5) 2_756 3_666 ?
O5 Sr1 O8 67.0(4) 4_566 3_666 ?
O2 Sr1 O8 101.4(3) . 3_666 ?
O4 Sr1 O8 58.5(5) 3_666 3_666 ?
O7 Sr1 Si1 153.1(3) 4_565 3_666 ?
O1 Sr1 Si1 108.7(3) . 3_666 ?
O3 Sr1 Si1 96.3(3) 2_756 3_666 ?
O5 Sr1 Si1 86.2(3) 4_566 3_666 ?
O2 Sr1 Si1 112.5(3) . 3_666 ?
O4 Sr1 Si1 29.6(3) 3_666 3_666 ?
O8 Sr1 Si1 29.0(4) 3_666 3_666 ?
O7 Sr1 O3 51.8(4) 4_565 4_565 ?
O1 Sr1 O3 54.2(2) . 4_565 ?
O3 Sr1 O3 66.8(5) 2_756 4_565 ?
O5 Sr1 O3 110.2(4) 4_566 4_565 ?
O2 Sr1 O3 77.6(2) . 4_565 ?
O4 Sr1 O3 125.2(4) 3_666 4_565 ?
O8 Sr1 O3 176.2(5) 3_666 4_565 ?
Si1 Sr1 O3 154.7(3) 3_666 4_565 ?
O7 Sr1 O4 106.2(4) 4_565 . ?
O1 Sr1 O4 50.8(3) . . ?
O3 Sr1 O4 124.2(4) 2_756 . ?
O5 Sr1 O4 54.8(4) 4_566 . ?
O2 Sr1 O4 172.3(5) . . ?
O4 Sr1 O4 67.9(6) 3_666 . ?
O8 Sr1 O4 78.3(3) 3_666 . ?
Si1 Sr1 O4 71.0(3) 3_666 . ?
O3 Sr1 O4 102.1(2) 4_565 . ?
O7 Sr1 Al1 87.4(3) 4_565 . ?
O1 Sr1 Al1 111.8(3) . . ?
O3 Sr1 Al1 31.7(2) 2_756 . ?
O5 Sr1 Al1 149.2(3) 4_566 . ?
O2 Sr1 Al1 31.3(4) . . ?
O4 Sr1 Al1 97.1(3) 3_666 . ?
O8 Sr1 Al1 110.7(3) 3_666 . ?
Si1 Sr1 Al1 105.68(14) 3_666 . ?
O3 Sr1 Al1 70.3(2) 4_565 . ?
O4 Sr1 Al1 155.8(3) . . ?
O7 Sr1 Si2 24.5(3) 4_565 4_565 ?
O1 Sr1 Si2 68.5(3) . 4_565 ?
O3 Sr1 Si2 89.2(3) 2_756 4_565 ?
O5 Sr1 Si2 88.2(3) 4_566 4_565 ?
O2 Sr1 Si2 72.7(3) . 4_565 ?
O4 Sr1 Si2 151.5(3) 3_666 4_565 ?
O8 Sr1 Si2 148.7(4) 3_666 4_565 ?
Si1 Sr1 Si2 173.73(13) 3_666 4_565 ?
O3 Sr1 Si2 27.5(3) 4_565 4_565 ?
O4 Sr1 Si2 103.4(3) . 4_565 ?
Al1 Sr1 Si2 80.59(13) . 4_565 ?
O5 Si1 O8 110.5(7) . . ?
O5 Si1 O4 113.3(8) . . ?
O8 Si1 O4 105.7(8) . . ?
O5 Si1 O1 109.1(6) . . ?
O8 Si1 O1 112.6(8) . . ?
O4 Si1 O1 105.6(5) . . ?
O5 Si1 Sr1 127.5(3) . 3_666 ?
O8 Si1 Sr1 53.6(4) . 3_666 ?
O4 Si1 Sr1 52.1(6) . 3_666 ?
O1 Si1 Sr1 123.3(5) . 3_666 ?
O5 Si1 Sr1 132.4(5) . . ?
O8 Si1 Sr1 115.2(5) . . ?
O4 Si1 Sr1 66.1(3) . . ?
O1 Si1 Sr1 40.4(3) . . ?
Sr1 Si1 Sr1 91.18(10) 3_666 . ?
O5 Si1 Sr1 38.7(5) . 4_565 ?
O8 Si1 Sr1 144.9(4) . 4_565 ?
O4 Si1 Sr1 103.8(7) . 4_565 ?
O1 Si1 Sr1 76.5(6) . 4_565 ?
Sr1 Si1 Sr1 150.12(19) 3_666 4_565 ?
Sr1 Si1 Sr1 93.79(11) . 4_565 ?
O6 Si2 O2 108.8(7) . . ?
O6 Si2 O7 111.3(5) . . ?
O2 Si2 O7 106.4(6) . . ?
O6 Si2 O3 113.3(7) . . ?
O2 Si2 O3 110.0(6) . . ?
O7 Si2 O3 106.8(8) . . ?
O6 Si2 Sr1 134.2(5) . 4_566 ?
O2 Si2 Sr1 113.9(3) . 4_566 ?
O7 Si2 Sr1 40.7(6) . 4_566 ?
O3 Si2 Sr1 66.7(4) . 4_566 ?
O2 Al1 O1 115.1(8) . 3_766 ?
O2 Al1 O7 112.6(6) . 3_767 ?
O1 Al1 O7 108.7(6) 3_766 3_767 ?
O2 Al1 O3 103.6(6) . 2_756 ?
O1 Al1 O3 103.1(5) 3_766 2_756 ?
O7 Al1 O3 113.4(7) 3_767 2_756 ?
O2 Al1 Sr1 51.7(3) . . ?
O1 Al1 Sr1 124.2(5) 3_766 . ?
O7 Al1 Sr1 126.7(3) 3_767 . ?
O3 Al1 Sr1 52.0(5) 2_756 . ?
O2 Al1 Sr1 149.8(3) . 2_756 ?
O1 Al1 Sr1 75.7(6) 3_766 2_756 ?
O7 Al1 Sr1 39.8(4) 3_767 2_756 ?
O3 Al1 Sr1 100.8(6) 2_756 2_756 ?
Sr1 Al1 Sr1 146.9(2) . 2_756 ?
O2 Al1 Sr1 113.6(4) . 3_766 ?
O1 Al1 Sr1 40.4(3) 3_766 3_766 ?
O7 Al1 Sr1 132.8(5) 3_767 3_766 ?
O3 Al1 Sr1 64.0(3) 2_756 3_766 ?
Sr1 Al1 Sr1 90.37(10) . 3_766 ?
Sr1 Al1 Sr1 92.98(13) 2_756 3_766 ?
O6 Al2 O4 113.1(7) 4_465 . ?
O6 Al2 O5 113.0(5) 4_465 4_566 ?
O4 Al2 O5 104.2(8) . 4_566 ?
O6 Al2 O8 111.1(7) 4_465 2_645 ?
O4 Al2 O8 108.6(6) . 2_645 ?
O5 Al2 O8 106.4(6) 4_566 2_645 ?
O6 Al2 Sr1 136.1(5) 4_465 . ?
O4 Al2 Sr1 64.0(3) . . ?
O5 Al2 Sr1 41.1(6) 4_566 . ?
O8 Al2 Sr1 110.8(3) 2_645 . ?
Si1 O1 Al1 130.8(6) . 3_766 ?
Si1 O1 Sr1 115.3(4) . . ?
Al1 O1 Sr1 113.5(4) 3_766 . ?
Si2 O2 Al1 125.8(6) . . ?
Si2 O2 Sr1 136.8(7) . . ?
Al1 O2 Sr1 97.0(5) . . ?
Si2 O3 Al1 121.9(8) . 2_746 ?
Si2 O3 Sr1 138.7(4) . 2_746 ?
Al1 O3 Sr1 96.3(7) 2_746 2_746 ?
Si2 O3 Sr1 85.8(4) . 4_566 ?
Al1 O3 Sr1 87.3(4) 2_746 4_566 ?
Sr1 O3 Sr1 113.1(5) 2_746 4_566 ?
Si1 O4 Al2 124.7(10) . . ?
Si1 O4 Sr1 98.4(8) . 3_666 ?
Al2 O4 Sr1 134.2(5) . 3_666 ?
Si1 O4 Sr1 87.0(4) . . ?
Al2 O4 Sr1 87.3(4) . . ?
Sr1 O4 Sr1 112.1(6) 3_666 . ?
Si1 O5 Al2 127.4(9) . 4_565 ?
Si1 O5 Sr1 119.0(5) . 4_565 ?
Al2 O5 Sr1 112.4(8) 4_565 4_565 ?
Si2 O6 Al2 133.0(10) . 4_666 ?
Si2 O7 Al1 127.7(8) . 3_767 ?
Si2 O7 Sr1 114.8(8) . 4_566 ?
Al1 O7 Sr1 114.4(5) 3_767 4_566 ?
Si1 O8 Al2 129.1(7) . 2_655 ?
Si1 O8 Sr1 97.4(6) . 3_666 ?
Al2 O8 Sr1 133.5(8) 2_655 3_666 ?
loop_
_geom_bond_atom_site_label_1
_geom_bond_atom_site_label_2
_geom_bond_distance
_geom_bond_site_symmetry_2
_geom_bond_publ_flag
Sr1 O7 2.546(14) 4_565 ?
Sr1 O1 2.565(9) . ?
Sr1 O3 2.615(15) 2_756 ?
Sr1 O5 2.587(16) 4_566 ?
Sr1 O2 2.608(7) . ?
Sr1 O4 2.590(17) 3_666 ?
Sr1 O8 2.637(9) 3_666 ?
Sr1 Si1 3.249(5) 3_666 ?
Sr1 O3 3.263(9) 4_565 ?
Sr1 O4 3.275(8) . ?
Sr1 Al1 3.299(5) . ?
Sr1 Si2 3.544(5) 4_565 ?
Si1 O5 1.573(14) . ?
Si1 O8 1.59(2) . ?
Si1 O4 1.620(11) . ?
Si1 O1 1.627(8) . ?
Si2 O6 1.611(10) . ?
Si2 O2 1.613(13) . ?
Si2 O7 1.619(9) . ?
Si2 O3 1.642(18) . ?
Al1 O2 1.728(17) . ?
Al1 O1 1.739(9) 3_766 ?
Al1 O7 1.728(13) 3_767 ?
Al1 O3 1.744(10) 2_756 ?
Al2 O6 1.728(10) 4_465 ?
Al2 O4 1.75(2) . ?
Al2 O5 1.758(8) 4_566 ?
Al2 O8 1.761(15) 2_645 ?
