#------------------------------------------------------------------------------
#$Date: 2021-07-04 04:49:46 +0300 (Sun, 04 Jul 2021) $
#$Revision: 266973 $
#$URL: file:///home/coder/svn-repositories/cod/cif/1/56/31/1563147.cif $
#------------------------------------------------------------------------------
#
# This file is available in the Crystallography Open Database (COD),
# http://www.crystallography.net/
#
# All data on this site have been placed in the public domain by the
# contributors.
#
data_1563147
loop_
_publ_author_name
'Gorelova, Liudmila A.'
'Pakhomova, Anna S.'
'Krzhizhanovskaya, Maria G.'
'Pankin, Dmitrii V.'
'Krivovichev, Sergey V.'
'Dubrovinsky, Leonid S.'
'Kasatkin, Anatoly V.'
_publ_section_title
;
 Crystal Structure Evolution of Slawsonite SrAl2Si2O8 and Paracelsian
 BaAl2Si2O8 upon Compression and Decompression
;
_journal_issue                   23
_journal_name_full               'The Journal of Physical Chemistry C'
_journal_page_first              13014
_journal_page_last               13023
_journal_paper_doi               10.1021/acs.jpcc.1c02949
_journal_volume                  125
_journal_year                    2021
_chemical_formula_sum            'Al2 O8 Si2 Sr'
_chemical_formula_weight         325.76
_space_group_crystal_system      monoclinic
_space_group_IT_number           14
_space_group_name_Hall           '-P 2ybc'
_space_group_name_H-M_alt        'P 1 21/c 1'
_audit_creation_method           SHELXL-2018/3
_cell_angle_alpha                90
_cell_angle_beta                 90.534(11)
_cell_angle_gamma                90
_cell_formula_units_Z            4
_cell_length_a                   8.8127(9)
_cell_length_b                   8.643(6)
_cell_length_c                   6.5945(15)
_cell_measurement_reflns_used    692
_cell_measurement_temperature    293(2)
_cell_measurement_theta_max      19.296
_cell_measurement_theta_min      2.674
_cell_volume                     502.3(4)
_computing_structure_refinement  'SHELXL-2018/3 (Sheldrick, 2018)'
_diffrn_ambient_temperature      293(2)
_diffrn_measured_fraction_theta_full 0.348
_diffrn_measured_fraction_theta_max 0.199
_diffrn_measurement_device_type
'esperanto-CrysAlisPro-abstract goniometer imported esperanto images'
_diffrn_radiation_type           synchrotron
_diffrn_radiation_wavelength     0.41106
_diffrn_reflns_av_R_equivalents  0.0339
_diffrn_reflns_av_unetI/netI     0.0493
_diffrn_reflns_Laue_measured_fraction_full 0.348
_diffrn_reflns_Laue_measured_fraction_max 0.199
_diffrn_reflns_limit_h_max       12
_diffrn_reflns_limit_h_min       -13
_diffrn_reflns_limit_k_max       6
_diffrn_reflns_limit_k_min       -4
_diffrn_reflns_limit_l_max       9
_diffrn_reflns_limit_l_min       -9
_diffrn_reflns_number            692
_diffrn_reflns_point_group_measured_fraction_full 0.348
_diffrn_reflns_point_group_measured_fraction_max 0.199
_diffrn_reflns_theta_full        14.279
_diffrn_reflns_theta_max         19.296
_diffrn_reflns_theta_min         2.674
_exptl_absorpt_coefficient_mu    2.707
_exptl_crystal_colour            colorless
_exptl_crystal_density_diffrn    4.308
_exptl_crystal_density_meas      ?
_exptl_crystal_density_method    none
_exptl_crystal_description       isosymmetric
_exptl_crystal_F_000             624
_exptl_crystal_size_max          0.010
_exptl_crystal_size_mid          0.010
_exptl_crystal_size_min          0.005
_refine_diff_density_max         1.057
_refine_diff_density_min         -1.685
_refine_diff_density_rms         0.269
_refine_ls_extinction_coef       0.029(19)
_refine_ls_extinction_expression Fc^*^=kFc[1+0.001xFc^2^\l^3^/sin(2\q)]^-1/4^
_refine_ls_extinction_method     'SHELXL-2018/3 (Sheldrick 2018)'
_refine_ls_goodness_of_fit_ref   1.143
_refine_ls_hydrogen_treatment    undef
_refine_ls_matrix_type           full
_refine_ls_number_parameters     79
_refine_ls_number_reflns         437
_refine_ls_number_restraints     0
_refine_ls_restrained_S_all      1.143
_refine_ls_R_factor_all          0.1189
_refine_ls_R_factor_gt           0.0939
_refine_ls_shift/su_max          0.000
_refine_ls_shift/su_mean         0.000
_refine_ls_structure_factor_coef Fsqd
_refine_ls_weighting_details
'w=1/[\s^2^(Fo^2^)+(0.1559P)^2^+16.1598P] where P=(Fo^2^+2Fc^2^)/3'
_refine_ls_weighting_scheme      calc
_refine_ls_wR_factor_gt          0.2495
_refine_ls_wR_factor_ref         0.2946
_reflns_Friedel_coverage         0.000
_reflns_number_gt                331
_reflns_number_total             437
_reflns_threshold_expression     'I > 2\s(I)'
_cod_data_source_file            slav_p08.cif
_cod_data_source_block           shelx
_cod_depositor_comments
;
The following automatic conversions were performed:

data item '_exptl_crystal_density_meas' value 'none' was changed to
'?' -- the value is perceived as not measured.

Automatic conversion script
Id: cif_fix_values 7556 2019-12-06 15:28:31Z antanas 

 Adding full bibliography for 1563145--1563156.cif.
;
_cod_original_cell_volume        502.2(4)
_cod_original_sg_symbol_H-M      'P 21/c'
_cod_database_code               1563147
_shelx_shelxl_version_number     2018/3
_shelx_space_group_comment
;
The symmetry employed for this shelxl refinement is uniquely defined
by the following loop, which should always be used as a source of
symmetry information in preference to the above space-group names.
They are only intended as comments.
;
_shelx_res_file
;
TITL slav_p08_s2 in P2(1)/c
    shelx.res
    created by SHELXL-2018/3 at 13:53:48 on 19-Jan-2021
REM P2(1)/c (#14 in standard setting)
CELL 0.41106   8.812725   8.642600   6.594510  90.0000  90.5337  90.0000
ZERR    4.00   0.000887   0.006063   0.001511   0.0000   0.0112   0.0000
LATT  1
SYMM -x, y+1/2,-z+1/2
SFAC O AL SI SR
DISP O 0.00165 0.00179 4.1539
DISP Si 0.026465 0.022605 52.36784
DISP Al 0.019188 0.016298 37.75624
DISP Sr 0.242892 1.295112 3000.317
UNIT 32.00 8.00 8.00 4.00
L.S. 20

OMIT    -3   3   2
OMIT     7   3   2
OMIT     0   3   4
OMIT    -9   2   5
OMIT    -1   1   5
OMIT    -9   4   2
OMIT    -6   4   2
OMIT    -9   5   1
OMIT     6   3   1
OMIT     3   4   6
OMIT    -8   2   5
OMIT   -10   6   3
OMIT   -11   3   4
OMIT    -8   6   4
OMIT     2   2   6

BOND
ACTA
LIST 6
FMAP 2
PLAN 20
WGHT    0.155900   16.159800
EXTI    0.028553
FVAR       3.83059
SR1   4    0.751177    0.612294    0.269842    11.00000    0.01246    0.07189 =
         0.04123    0.00058    0.00390   -0.00016
SI1   3    0.584614    0.542693    0.778472    11.00000    0.01042    0.07197 =
         0.04194    0.00428    0.00088   -0.00091
SI2   3    1.075407    0.721276    0.515630    11.00000    0.00979    0.08512 =
         0.03207   -0.00158    0.00277    0.00236
AL1   2    0.912096    0.533066    0.811995    11.00000    0.00915    0.08199 =
         0.03263    0.00875    0.00832   -0.00658
AL2   2    0.407430    0.765730    1.014729    11.00000    0.00985    0.08803 =
         0.03945    0.00664    0.00309   -0.00426
O1    1    0.738710    0.604615    0.892348    11.00000    0.02662
O2    1    0.938794    0.341632    0.733671    11.00000    0.02387
O3    1    1.082353    0.902331    0.430578    11.00000    0.02610
O4    1    0.425723    0.597250    0.885296    11.00000    0.02195
O5    1    0.582603    0.637954    0.573629    11.00000    0.03206
O6    1    1.234741    0.654848    0.566929    11.00000    0.02357
O7    1    0.918534    0.633782    0.588163    11.00000    0.03360
O8    1    0.584804    0.359483    0.750611    11.00000    0.02746

HKLF 4




REM  slav_p08_s2 in P2(1)/c
REM wR2 = 0.2946, GooF = S = 1.143, Restrained GooF = 1.143 for all data
REM R1 = 0.0939 for 331 Fo > 4sig(Fo) and 0.1189 for all 437 data
REM 79 parameters refined using 0 restraints

END

WGHT      0.1574     16.1371

REM Highest difference peak  1.057,  deepest hole -1.685,  1-sigma level  0.269
Q1    1   0.7573  0.3051  0.7759  11.00000  0.05    1.06
Q2    1   0.8056  0.6245  0.4322  11.00000  0.05    1.04
Q3    1   0.7584  0.6077  0.5987  11.00000  0.05    0.97
Q4    1   0.7957  0.6316  1.0338  11.00000  0.05    0.97
Q5    1   0.8365  0.6024  0.1932  11.00000  0.05    0.94
Q6    1   0.7008  0.6359  0.1070  11.00000  0.05    0.91
Q7    1   0.8791  0.6854  0.1755  11.00000  0.05    0.84
Q8    1   0.6256  0.4225  0.6640  11.00000  0.05    0.84
Q9    1   0.4964  0.6263  0.5529  11.00000  0.05    0.82
Q10   1   0.9191  0.6559  0.5485  11.00000  0.05    0.82
Q11   1   0.5964  0.6376  1.0102  11.00000  0.05    0.78
Q12   1   0.5795  0.7018  0.9144  11.00000  0.05    0.76
Q13   1   0.6777  0.5859  0.3534  11.00000  0.05    0.76
Q14   1   0.4581  0.3526  0.8342  11.00000  0.05    0.75
Q15   1   1.2498  0.9251  0.3626  11.00000  0.05    0.75
Q16   1   0.7065  0.6445  0.4786  11.00000  0.05    0.74
Q17   1   0.5771  0.7561  0.6158  11.00000  0.05    0.74
Q18   1   0.9272  0.5623  0.6321  11.00000  0.05    0.72
Q19   1   0.4588  0.7626  1.1339  11.00000  0.05    0.72
Q20   1   0.7413  0.5557  0.5061  11.00000  0.05    0.71
;
_shelx_res_checksum              82240
_shelx_hkl_file
;
   0  -1   3 16546.4 794.649   1
   0  -1   4 69491.6 1991.32   1
   0  -1   5 660.364 281.642   1
   0  -1   6 211.658 110.591   1
   0  -1   7 368.349 293.504   1
   0   2  -3 495487. 4045.44   1
   0  -2   5 16605.7 951.814   1
   0  -2   6 2720.76 448.765   1
   0  -2   7 4589.24 662.880   1
   0  -2   8 583.338 294.266   1
   0   3  -4 15385.1 835.394   1
   0   4  -5 2117.50 339.058   1
   0   4  -6 65256.9 2017.80   1
   0   5  -6-176.368 137.526   1
  -1   0  -1 1.26047 55.0711   1
   1   0   1-0.85580 43.3408   1
   1   0   2 17944.8 970.204   1
   1   0   3 94.9821 186.107   1
  -1  -1   5 1485.04 369.479   1
  -1  -1   4 875.094 200.625   1
   1  -1   2 136558. 2347.14   1
  -1   1  -2 136580. 2373.55   1
  -1   1  -3 14143.6 955.871   1
   1  -1   3 14222.6 871.890   1
   1  -1   4 879.773 233.650   1
   1  -1   5 21022.6 1367.68   1
   1  -1   6 9647.05 1079.20   1
   1  -1   7 812.666 378.659   1
  -1  -2   7 1778.50 326.018   1
  -1  -2   6 1810.73 328.134   1
  -1  -2   5 3538.35 359.123   1
  -1   2  -3 19802.4 1033.55   1
   1  -2   4 7600.57 690.453   1
  -1   2  -4 6112.51 677.417   1
   1  -2   5 6050.78 632.139   1
  -1   2  -5 6454.58 1101.79   1
   1  -2   6 176.113 169.039   1
   1  -2   7 7858.17 971.267   1
   1  -2   8-63.0860 80.9996   1
  -1   3  -4 82232.9 2369.93   1
  -1   3  -5 3929.11 537.346   1
  -1   3  -6 189.442 89.5750   1
   1   4  -5-110.008 57.5023   1
  -1   4  -5 688.951 178.471   1
  -1   4  -6 5444.05 652.217   1
   1   5  -6-312.475 130.581   1
  -1   5  -6 516.129 261.111   1
  -1   5  -7 2083.35 368.532   1
  -2   0   0 2074.46 263.104   1
   2   0   0 2140.19 270.567   1
   2   0   1 74.2814 99.0450   1
  -2   0  -1-24.1100 36.2458   1
   2   0   2 88561.6 2531.91   1
  -2   0  -2 84949.3 2515.46   1
   2   0   3-169.819 106.464   1
  -2   0  -3 20.3206 122.241   1
   2   0   4 2935.19 608.978   1
   2   0   5 235.544 278.414   1
  -2  -1   1 1219.08 184.729   1
   2   1  -1 1406.86 166.084   1
  -2  -1   0 168.876 68.0538   1
   2   1   0 301.159 84.3169   1
   2   1   1 8037.71 732.118   1
  -2   1  -1 7826.96 643.302   1
   2  -1   1 7389.64 615.937   1
  -2   1  -2 8468.55 720.266   1
   2  -1   2 9285.09 751.001   1
  -2   1  -3 34767.0 1705.78   1
   2  -1   3 34305.5 1612.96   1
  -2   1  -4 290.066 168.929   1
   2  -1   4 229.525 138.990   1
   2  -1   5 62990.5 2597.41   1
   2  -1   6 2032.95 535.720   1
   2  -1   7 14643.5 1646.75   1
   2  -1   8-74.9537 315.890   1
  -2  -2   7 1888.55 270.853   1
  -2   2  -2 14061.1 983.395   1
   2  -2   3 69132.8 2298.82   1
  -2   2  -3 67987.3 2306.00   1
  -2   2  -4 2249.52 424.438   1
   2  -2   4 2847.25 463.686   1
   2  -2   5 29690.9 1687.13   1
  -2   2  -5 31852.3 1829.64   1
   2  -2   6 3709.07 1013.87   1
   2  -2   7 780.448 401.429   1
   2  -2   8 1166.30 481.724   1
  -2   3  -4 1010.23 296.669   1
  -2   3  -5-125.975 117.833   1
  -2   3  -6-193.990 117.411   1
   2  -3   7-133.175 149.017   1
   2  -3   8 2853.39 728.354   1
  -2   4  -5 630.621 206.404   1
  -2   4  -6 2529.54 510.692   1
  -2   4  -7-105.913 178.281   1
  -2   5  -6 5237.43 701.401   1
  -2   5  -7 910.957 280.805   1
  -3   0   1 24.8158 105.870   1
   3   0   0 3331.73 413.909   1
  -3   0   0 3014.48 386.955   1
   3   0   1-13.5700 65.8334   1
  -3   0  -1 13.9984 71.9229   1
   3   0   2 88922.7 2745.90   1
  -3   0  -2 87063.1 2900.57   1
   3   0   3-53.4444 68.8929   1
  -3   0  -3-121.154 177.154   1
   3   0   4 20868.5 1728.52   1
  -3   0  -4 21680.9 1787.37   1
   3   0   5 127.534 238.803   1
   3   0   6 234.696 284.257   1
  -3  -1   2 12667.0 703.242   1
   3   1  -1 324755. 3868.79   1
  -3  -1   1 320226. 3982.37   1
   3   1   0 283912. 4118.79   1
  -3  -1   0 282785. 4338.02   1
  -3   1  -1 310479. 4969.89   1
   3   1   1 312033. 5189.92   1
  -3  -1  -2 15661.2 1383.30   1
  -3   1  -2 17294.4 1217.30   1
   3  -1   2 17648.6 1250.84   1
   3  -1   3 194013. 4207.84   1
  -3   1  -3 191407. 4482.33   1
  -3   1  -4 112733. 3740.71   1
   3  -1   4 113683. 3563.05   1
  -3   1  -5 45030.4 2562.93   1
   3  -1   5 41674.9 2370.98   1
   3  -1   6-217.851 221.736   1
   3  -1   7 557.475 326.181   1
   3  -1   8 7638.95 1412.79   1
   3   2  -2 163.448 93.8069   1
   3   2  -1 27125.6 1250.39   1
   3   2   0 465.532 212.650   1
  -3   2  -2 2216.16 459.186   1
   3  -2   3 13476.2 1108.45   1
  -3   2  -3 12694.2 1126.80   1
  -3   2  -4 17417.2 1389.83   1
   3  -2   4 16582.5 1282.86   1
  -3   2  -5 107193. 3704.81   1
   3  -2   5 93952.7 3359.35   1
  -3   2  -6 259.971 147.988   1
   3  -2   6 692.306 220.803   1
   3  -2   7 1720.38 526.175   1
   3  -2   8 842.038 450.601   1
   3   3  -2 2131.73 480.787   1
  -3   3  -4 677.797 333.934   1
  -3   3  -5 25942.4 1795.25   1
  -3   3  -6 36101.9 2230.96   1
   3  -3   6 33008.5 2115.18   1
  -3   3  -7 4231.28 833.579   1
   3  -3   7 4208.72 841.295   1
   3  -3   8 603.798 316.918   1
  -3   4  -5 4177.70 751.927   1
  -3   4  -6 28792.3 1957.12   1
  -3   4  -7 6190.16 953.104   1
  -3   4  -8 1598.46 518.466   1
  -3   5  -6 3308.47 625.951   1
  -3   5  -7-103.052 287.623   1
  -3   5  -8 98.2217 74.5705   1
  -4   0   1-59.1668 134.713   1
  -4   0   0 13708.4 1031.26   1
   4   0   0 13345.0 982.145   1
  -4   0  -1 56.2073 76.5827   1
   4   0   1-61.7404 168.846   1
  -4   0  -2 105069. 3710.69   1
   4   0   2 110389. 3447.45   1
   4   0   3 62.7927 34.8626   1
  -4   0  -3 146.067 142.648   1
  -4   0  -4 9202.38 1242.22   1
   4   0   4 10065.6 1224.82   1
   4   0   5-4.01443 158.931   1
   4   0   6 12865.5 1798.28   1
   4   0   7-699.796 591.569   1
  -4  -1   2 6281.91 581.869   1
  -4  -1   1 175.854 133.474   1
   4   1  -1 470.021 243.625   1
  -4  -1   0 552.697 234.025   1
   4   1   0 537.684 119.796   1
  -4   1  -1 6547.00 840.422   1
  -4  -1  -1 7101.85 866.458   1
   4  -1   1 6578.19 834.565   1
   4   1   1 6690.12 827.757   1
   4  -1   2 4356.14 713.149   1
  -4  -1  -2 3304.27 695.602   1
  -4   1  -2 3614.69 619.550   1
   4   1   2 4184.08 747.259   1
  -4   1  -3 11735.9 1220.81   1
   4  -1   3 11779.7 1163.40   1
  -4  -1  -3 9390.23 1267.06   1
   4   1   3 11167.4 1318.57   1
  -4   1  -4 13478.8 1412.70   1
   4  -1   4 12814.9 1292.54   1
  -4   1  -5 5802.41 1007.40   1
   4  -1   5 5289.61 889.815   1
  -4   1  -6 2635.79 755.094   1
   4  -1   6 2969.93 777.545   1
   4  -1   7 5442.32 1139.35   1
   4  -1   8 330.941 410.852   1
  -4  -2   4 852.345 206.587   1
  -4  -2   3 106509. 2295.12   1
   4   2  -2 25203.8 1148.96   1
  -4  -2   2 24871.6 1313.97   1
  -4  -2   1 132661. 3457.96   1
   4   2  -1 131898. 3038.99   1
   4   2   0 1227.38 351.009   1
  -4  -2   0 955.468 345.617   1
  -4   2  -2 6062.76 821.597   1
   4  -2   3 59323.9 2659.90   1
  -4   2  -3 58000.7 2729.67   1
   4  -2   4 14174.1 1300.38   1
  -4   2  -4 12055.1 1276.69   1
  -4   2  -5 24120.4 1927.66   1
   4  -2   5 25098.1 1857.04   1
   4  -2   6 1152.95 507.852   1
  -4   2  -6 507.140 253.708   1
   4  -2   7 3553.63 819.390   1
  -4   2  -7 3702.88 943.957   1
   4  -2   8 392.917 371.311   1
   4  -2   9 31.4523 120.595   1
   4   3  -3 90.8936 31.5549   1
   4   3  -2 44.9091 116.394   1
   4   3  -1 4015.55 619.426   1
  -4   3  -5 808.379 366.731   1
   4  -3   6 2740.40 568.019   1
  -4   3  -6 2253.76 556.701   1
   4  -3   7 3186.37 723.938   1
  -4   3  -7 4482.62 1043.31   1
   4  -3   8 483.758 385.539   1
   4  -3   9 227.939 328.211   1
  -4   4  -5 7986.10 1101.85   1
  -4   4  -6 165.239 146.428   1
  -4   4  -7 1133.40 485.520   1
  -4   4  -8 799.615 438.657   1
  -4   5  -7 1763.05 636.133   1
  -4   5  -8 672.112 458.003   1
   4   6  -5-66.2603 49.7143   1
  -5   0   1-18.2049 111.527   1
   5   0   0 5148.47 691.197   1
  -5   0   0 5115.81 702.867   1
   5   0   1-34.1444 89.7197   1
  -5   0  -1 20.9681 116.973   1
  -5   0  -2 22086.6 1741.23   1
   5   0   2 21974.4 1677.12   1
   5   0   3-230.052 184.520   1
  -5   0  -3-477.894 319.426   1
  -5   0  -4 58794.9 3283.24   1
   5   0   4 61008.9 3206.46   1
   5   0   5-124.735 228.279   1
  -5   0  -5 389.381 349.647   1
   5   0   7-2.88784 279.442   1
  -5  -1   3 20117.8 1158.15   1
  -5  -1   2 55948.0 2059.26   1
   5   1  -1 41240.9 1844.18   1
  -5  -1   1 39829.6 1881.66   1
  -5  -1   0 6192.49 830.622   1
   5   1   0 6331.65 763.236   1
   5   1   1 5800.15 846.581   1
  -5   1  -1 5721.13 884.200   1
  -5  -1  -1 6919.31 957.891   1
   5  -1   1 6454.19 883.864   1
  -5   1  -2 67949.3 3049.87   1
  -5  -1  -2 66622.1 3247.92   1
   5  -1   2 73011.2 3070.93   1
   5   1   2 68821.2 3116.66   1
   5   1   3 11722.7 1345.87   1
  -5   1  -3 11380.1 1289.45   1
   5  -1   3 12325.4 1306.09   1
  -5  -1  -3 10312.8 1355.02   1
   5   1   4 155.498 155.784   1
  -5   1  -4 271.190 309.206   1
  -5   1  -5 10289.8 1387.65   1
   5  -1   5 7740.96 1251.03   1
  -5   1  -6 8410.69 1365.03   1
   5  -1   6 8996.85 1342.92   1
   5  -1   7 1694.47 725.260   1
   5  -1   8 367.886 404.429   1
  -5  -2   5 2724.93 405.596   1
  -5  -2   4 7227.57 666.823   1
  -5  -2   3 8436.13 763.524   1
   5   2  -2 814.804 269.918   1
  -5  -2   2 607.805 220.507   1
   5   2  -1-44.0525 120.884   1
  -5  -2   1 28.4858 66.1158   1
  -5  -2   0 1860.64 533.987   1
   5   2   0 1680.34 425.630   1
  -5  -2  -1 1415.56 496.467   1
   5   2   1 1697.31 502.860   1
  -5   2  -2 3429.46 647.817   1
   5   2   2 3089.82 806.527   1
  -5   2  -3 7652.13 1054.97   1
   5  -2   3 6375.40 992.598   1
  -5   2  -4 11880.1 1361.27   1
   5  -2   4 13522.2 1430.40   1
   5  -2   5 3772.75 833.390   1
  -5   2  -5 5093.61 941.018   1
   5  -2   6 3590.29 841.171   1
  -5   2  -6 3813.09 909.528   1
  -5   2  -7 4196.96 1044.50   1
   5  -2   7 2660.21 761.219   1
   5  -2   8 1107.63 572.889   1
   5  -2   9 837.486 640.781   1
   5   3  -3 5797.57 582.408   1
   5   3  -2 28492.3 1451.29   1
  -5   3  -4 33769.9 2379.56   1
  -5   3  -5 6831.68 1069.79   1
  -5   3  -6 1157.80 590.958   1
   5  -3   6 1578.55 528.642   1
  -5   3  -7 551.465 369.294   1
   5  -3   7 465.764 318.481   1
  -5   3  -8 1009.17 619.592   1
   5  -3   8-96.3452 329.950   1
   5  -3   9-95.0231 310.916   1
   5   4  -4 4601.59 436.924   1
   5   4  -3 59.0214 81.8047   1
   5   4  -2 1629.73 347.854   1
  -5   4  -5 251.914 311.637   1
  -5   4  -6 759.231 488.558   1
  -5   4  -7 199.370 293.209   1
  -5   4  -8 577.634 486.561   1
   5   5  -4 989.317 211.220   1
  -5   5  -7-276.084 427.368   1
  -5   5  -8 316.635 390.816   1
   5   6  -5-53.3009 34.5500   1
  -6   0   1-255.575 195.119   1
  -6   0   0 999999. 11398.6   1
   6   0   1 342.143 245.159   1
  -6   0  -1 70.0571 188.205   1
   6   0   2 37814.4 2449.95   1
  -6   0  -2 40228.7 2646.59   1
   6   0   3-346.541 250.158   1
  -6   0  -3 96.2792 196.923   1
   6   0   4 131286. 5095.42   1
  -6   0  -4 146327. 5625.03   1
  -6   0  -5-257.534 351.071   1
   6   0   5-1152.27 679.598   1
   6   0   6 8379.35 1580.24   1
   6   0   7 309.601 436.782   1
  -6  -1   3 3705.80 594.379   1
  -6  -1   2 361.973 198.767   1
   6   1  -1 343.695 206.559   1
  -6  -1   1 82.8583 21.2294   1
   6   1   0 13996.9 1292.03   1
  -6  -1   0 12980.0 1307.18   1
  -6   1  -1 207.512 194.892   1
   6   1   1 226.360 166.799   1
   6  -1   1-10.0977 40.1782   1
  -6  -1  -1-93.8531 95.3907   1
   6  -1   2 5335.08 839.405   1
  -6  -1  -2 4974.60 963.224   1
  -6   1  -2 6110.58 976.437   1
   6   1   2 4897.72 975.639   1
  -6  -1  -3 8561.28 1291.48   1
   6  -1   3 9908.68 1245.62   1
  -6   1  -3 9649.73 1306.11   1
   6   1   3 7755.40 1131.83   1
   6  -1   4 13757.1 1557.22   1
  -6   1  -4 15614.5 1722.94   1
  -6  -1  -4 11376.5 1630.63   1
   6   1   4 13589.6 1687.93   1
   6  -1   5 249.711 299.665   1
  -6   1  -5 774.416 523.814   1
   6   1   5 773.377 488.977   1
  -6   1  -6 976.655 574.629   1
   6  -1   6 440.072 221.668   1
   6  -1   7 220.589 444.464   1
   6  -1   8 3915.12 1167.19   1
  -6  -2   6 2262.95 391.007   1
  -6  -2   5 13660.6 1053.52   1
  -6  -2   4 2306.94 433.890   1
  -6  -2   3 204869. 4350.16   1
   6   2  -2 82506.6 2735.76   1
  -6  -2   2 83391.7 2969.04   1
   6   2  -1 14561.3 1235.67   1
  -6  -2   1 15131.4 1397.88   1
  -6  -2   0 1190.94 424.529   1
   6   2   0 721.035 357.781   1
   6   2   1 29467.9 2122.16   1
  -6   2  -2 92166.4 3925.65   1
   6  -2   3 134881. 4820.04   1
  -6   2  -3 137861. 4972.79   1
   6   2   3 124160. 5139.19   1
  -6   2  -4 5222.11 1037.90   1
   6  -2   4 4025.09 826.397   1
   6  -2   5 13690.9 1598.60   1
  -6   2  -5 12286.4 1631.09   1
   6  -2   6 2367.04 713.977   1
  -6   2  -6 4796.70 1167.68   1
   6  -2   7 2524.85 852.351   1
  -6   2  -7 2033.26 711.991   1
   6  -2   8 1285.82 589.201   1
   6  -2   9 522.660 340.183   1
  -6  -3   3 12719.2 1284.60   1
   6   3  -2 46846.4 2042.52   1
   6   3  -1 36495.8 1990.86   1
  -6  -3   1 34639.6 2358.70   1
   6   3   0 1385.03 527.664   1
   6   3   1 4567.24 1089.55   1
  -6   3  -4 17699.7 1876.05   1
  -6   3  -5 18390.7 1910.74   1
  -6   3  -6 6609.86 1235.24   1
   6  -3   6 7203.77 1201.79   1
  -6   3  -7 1935.89 833.171   1
   6  -3   7 3368.23 965.596   1
  -6   3  -8 1184.90 759.843   1
   6  -3   8 1487.92 638.686   1
   6  -3   9-596.780 256.531   1
   6   4  -4 1505.02 299.263   1
   6   4  -3 1329.02 322.459   1
   6   4  -2 52125.9 2283.11   1
   6   4  -1 318.570 82.1311   1
  -6   4  -6 35828.1 2902.16   1
  -6   4  -7-30.9052 94.8578   1
  -6   4  -8 330.982 377.495   1
  -6   4  -9-61.0147 347.115   1
   6   5  -4 508.479 234.563   1
   6   5  -3 11692.4 1038.40   1
   6   6  -4-77.9647 138.810   1
  -7   0   1-137.475 169.861   1
  -7   0   0 1839.48 481.772   1
   7   0   0 899.349 299.716   1
  -7   0  -1-26.3307 143.908   1
   7   0   1 62.0092 239.788   1
   7   0   2 3427.34 884.802   1
  -7   0  -2 4722.32 1021.89   1
   7   0   3 2.27725 114.409   1
  -7   0  -3-177.211 2140.85   1
   7   0   4 30227.3 2528.79   1
  -7   0  -4 33665.9 2814.71   1
  -7   0  -5 401.495 262.450   1
   7   0   5-294.420 425.919   1
  -7   0  -6 10400.7 1896.32   1
   7   0   6 10378.6 1825.44   1
   7   0   7-360.095 530.938   1
  -7  -1   3 20569.9 1562.08   1
  -7  -1   2 47017.4 2480.96   1
  -7  -1   1 13839.1 1363.84   1
   7   1  -1 11352.5 1252.10   1
   7   1   0 17934.4 1603.60   1
  -7  -1   0 18379.0 1743.11   1
   7   1   1 3728.23 808.092   1
  -7   1  -1 3472.62 929.690   1
  -7  -1  -1 3752.91 828.206   1
   7  -1   1 4654.78 995.662   1
   7  -1   2 73276.3 3794.64   1
  -7  -1  -2 67883.9 3830.49   1
  -7   1  -2 71762.5 3780.28   1
   7  -1   3 6478.41 926.751   1
  -7   1  -3 8983.43 1318.67   1
   7   1   3 9619.52 1309.77   1
  -7  -1  -3 8600.86 1425.26   1
   7  -1   4 207.948 95.5135   1
  -7   1  -4 311.152 277.083   1
   7   1   4 944.034 545.704   1
  -7  -1  -4 133.319 297.395   1
  -7  -1  -5 10495.4 1817.46   1
  -7   1  -5 11246.3 1740.77   1
   7  -1   5 7369.86 1364.88   1
   7   1   5 10893.8 1709.84   1
  -7   1  -6 6061.16 1381.48   1
   7  -1   6 4230.44 1120.63   1
  -7   1  -7 617.491 241.451   1
   7  -1   7 570.144 491.876   1
  -7  -2   5 10956.8 1021.29   1
  -7  -2   4 27775.5 1676.61   1
  -7  -2   3 575.563 331.127   1
   7   2  -2 995.548 279.970   1
  -7  -2   2 872.600 255.828   1
   7   2  -1 1025.90 365.684   1
  -7  -2   1 881.366 344.417   1
  -7  -2   0 2566.66 637.078   1
   7   2   0 3060.23 692.696   1
   7   2   1 551.570 191.848   1
  -7  -2  -1 833.493 486.324   1
  -7   2  -2 1276.04 300.948   1
  -7  -2  -2 1659.09 836.224   1
   7   2   2 1037.98 545.150   1
  -7  -2  -3 8509.93 1528.17   1
  -7   2  -3 10947.4 1463.33   1
   7  -2   3 11460.1 1483.86   1
   7   2   3 10589.5 1519.22   1
   7   2   4 6.07967 275.665   1
  -7   2  -4 301.691 295.696   1
   7  -2   4 756.655 396.495   1
   7  -2   5 2431.49 760.686   1
  -7   2  -5 2721.70 743.674   1
   7  -2   6-144.205 201.584   1
  -7   2  -6 130.152 402.306   1
   7  -2   7 6073.13 1392.60   1
  -7   2  -7 5631.94 1430.54   1
  -7  -3   4 34975.9 2122.92   1
   7   3  -3 25390.9 1557.92   1
  -7  -3   3 26756.5 1957.82   1
   7   3  -2 25508.6 1667.04   1
  -7  -3   2 23986.0 1995.46   1
   7   3  -1 58645.0 2692.19   1
  -7  -3   1 55514.5 3099.89   1
   7   3   1 12375.2 1772.54   1
   7   3   2 114.544 227.376   1
  -7   3  -4 31226.0 2743.48   1
  -7   3  -5 1495.94 596.465   1
  -7   3  -6 25.1524 245.692   1
  -7   3  -7 680.809 614.687   1
   7  -3   7-309.672 514.287   1
   7   4  -3 2456.71 432.344   1
   7   4  -2 150.820 323.089   1
   7   4  -1-37.8776 160.738   1
   7   4   0-68.5463 146.667   1
  -7   4  -6 1483.20 694.551   1
  -7   4  -7 182.063 350.810   1
   7   5  -4 3519.42 495.623   1
   7   5  -3 50487.0 2179.21   1
   7   5  -2-222.737 333.725   1
   7   6  -4 180.127 145.166   1
  -8   0   1 20.3487 206.923   1
  -8   0   0 3985.87 833.485   1
   8   0   0 3485.02 789.204   1
   8   0   1-143.304 308.833   1
  -8   0  -1-2.41369 172.871   1
   8   0   2 44041.7 3020.71   1
  -8   0  -2 43612.5 3117.86   1
   8   0   3-72.6521 256.959   1
  -8   0  -3 426.716 480.491   1
   8   0   4 1843.78 733.886   1
  -8   0  -4 2124.58 820.337   1
  -8   0  -5 3.65631 311.250   1
   8   0   5-317.327 442.666   1
   8   0   6 6118.19 1554.69   1
  -8   0  -6 8503.21 1653.92   1
  -8  -1   3 4464.69 800.958   1
  -8  -1   2 66.7118 321.295   1
  -8  -1   1 448.957 379.723   1
   8   1  -1 440.705 295.166   1
   8   1   0 252.056 177.688   1
  -8  -1   0-34.3607 149.054   1
   8   1   1 5889.24 1062.21   1
  -8   1  -1 5065.99 957.237   1
  -8  -1  -1 4735.47 917.236   1
  -8  -1  -2 1827.27 657.508   1
   8   1   2 3772.43 905.182   1
  -8   1  -2 1896.92 526.717   1
   8  -1   2 2446.56 755.247   1
   8  -1   3 12821.5 1643.31   1
  -8   1  -3 11881.2 1634.19   1
   8   1   3 12204.8 1623.67   1
  -8  -1  -3 11194.4 1729.87   1
   8  -1   4 806.968 267.305   1
   8   1   4 1572.78 687.169   1
  -8  -1  -4 2034.08 710.801   1
  -8   1  -4 2754.60 853.539   1
   8  -1   5 23148.4 2524.07   1
   8   1   5 23892.7 2728.42   1
  -8   1  -5 24603.7 2654.14   1
  -8  -1  -5 26223.3 3075.38   1
   8  -1   6 738.864 599.343   1
  -8   1  -6 388.233 183.536   1
  -8  -2   5 32674.4 1907.68   1
  -8  -2   4 10906.1 1174.13   1
  -8  -2   3 33315.5 2189.43   1
  -8  -2   2 181.347 260.189   1
   8   2  -2 344.243 143.906   1
   8   2  -1 61330.8 3077.40   1
  -8  -2   1 62598.1 3269.07   1
  -8  -2   0 1999.55 684.534   1
   8   2   0 3188.82 737.409   1
   8   2   1 53345.7 3127.73   1
  -8  -2  -1 51809.7 3370.83   1
  -8  -2  -2 716.081 346.291   1
   8   2   2 1902.85 572.772   1
   8   2   3 18509.4 2108.91   1
  -8   2  -3 19604.2 2182.09   1
  -8  -2  -3 15165.3 2225.06   1
  -8   2  -4 1115.18 624.891   1
   8   2   4 1021.04 565.816   1
   8  -2   4-346.896 362.588   1
  -8   2  -5 8992.31 1702.08   1
   8  -2   5 10485.7 1642.69   1
   8  -2   6-59.3030 160.093   1
  -8   2  -6-1263.61 670.652   1
  -8  -3   5-309.542 382.305   1
  -8  -3   4 14292.4 1396.98   1
  -8  -3   3 891.527 439.044   1
   8   3  -3 1645.04 395.024   1
  -8  -3   2 400.330 166.370   1
   8   3  -2 504.504 162.609   1
   8   3  -1 6021.94 901.029   1
  -8  -3   1 6834.12 1073.01   1
  -8  -3   0 741.149 687.472   1
   8   3   0 1355.27 556.924   1
  -8  -3  -1 108.001 236.442   1
   8   3   1-70.9599 204.472   1
   8   3   2 2354.77 695.997   1
  -8   3  -5-761.912 521.406   1
  -8   3  -6-47.0126 422.957   1
   8   4  -3 5298.26 773.721   1
   8   4  -2 16548.3 1396.32   1
   8   4  -1 15259.3 1528.28   1
   8   4   0 45786.4 2842.04   1
   8   5  -4 184.939 209.533   1
   8   5  -3-228.064 211.675   1
   8   5  -2 1136.90 375.564   1
   8   6  -4-323.477 239.323   1
  -9   0   1 104.594 340.505   1
  -9   0   0 641.142 213.747   1
  -9   0  -1-79.2705 252.893   1
   9   0   1-144.734 243.560   1
   9   0   2 14642.7 1838.68   1
  -9   0  -2 14387.9 1897.67   1
   9   0   3-311.706 405.645   1
  -9   0  -3-427.416 458.172   1
   9   0   4 6119.09 1329.24   1
  -9   0  -4 6180.94 1421.21   1
  -9  -1   3 54170.8 3009.41   1
  -9  -1   2 1111.45 486.294   1
   9   1  -1 71000.1 3702.52   1
  -9  -1   1 79552.7 4068.86   1
   9   1   0 51432.6 3201.49   1
  -9  -1   0 56344.8 3512.75   1
   9   1   1 85741.0 4387.36   1
  -9   1  -1 72940.7 4178.37   1
  -9  -1  -1 83765.5 4475.21   1
  -9  -1  -2 1036.05 558.132   1
   9   1   2 722.195 509.979   1
   9  -1   2 810.937 545.011   1
  -9   1  -2 209.065 294.464   1
   9  -1   3 48501.5 3546.61   1
   9   1   3 54522.9 3670.07   1
  -9   1  -3 50228.9 3877.77   1
  -9  -1  -3 48204.9 3774.08   1
   9  -1   4 26232.1 2685.48   1
   9   1   4 24526.5 2711.06   1
  -9   1  -4 29325.3 3008.09   1
  -9  -1  -4 28411.8 3192.97   1
  -9  -2   5 6401.03 1150.96   1
  -9  -2   4 28758.6 2143.09   1
  -9  -2   3 6449.01 1029.57   1
  -9  -2   2 505.996 351.846   1
   9   2  -2-56.2521 173.373   1
   9   2  -1 104.123 131.563   1
  -9  -2   1 182.615 312.264   1
  -9  -2   0 7378.81 1214.36   1
   9   2   0 6234.77 1067.65   1
   9   2   1 1154.86 565.722   1
  -9  -2  -1 1093.79 487.475   1
  -9  -2  -2 1634.43 742.463   1
   9   2   2 2736.61 838.930   1
  -9  -2  -3 2382.04 911.859   1
   9   2   3 3823.56 1033.89   1
  -9   2  -3 3001.52 906.447   1
  -9   2  -4 46.8969 346.028   1
   9   2   4 57.4726 335.276   1
   9  -2   4 322.601 102.897   1
  -9  -2  -4 404.243 307.807   1
  -9  -3   4 1674.98 564.467   1
  -9  -3   3 2001.76 540.091   1
   9   3  -2 37508.5 2331.55   1
  -9  -3   2 35721.0 2713.68   1
   9   3  -1 1809.92 484.655   1
  -9  -3   1 1255.72 586.765   1
   9   3   0 1095.51 526.391   1
  -9  -3   0 771.198 302.792   1
   9   3   1 2815.73 829.482   1
  -9  -3  -1 1540.67 738.005   1
   9   3   2 31946.7 2717.62   1
  -9  -3  -2 24346.3 3024.63   1
   9   3   3 300.481 547.778   1
   9   4  -3 5815.74 782.854   1
   9   4  -2 52008.8 2788.69   1
   9   4  -1 1060.03 305.157   1
   9   4   0 1269.98 451.273   1
   9   4   1 169.065 251.650   1
   9   5  -4-26.6546 190.961   1
   9   5  -3 10347.4 1108.74   1
   9   5  -2 37453.8 2364.22   1
   9   5  -1-72.2786 126.384   1
   9   6  -3 167.828 140.220   1
 -10   0   0 4028.81 967.147   1
 -10   0  -1 144.985 267.598   1
  10   0   1-158.982 90.3535   1
  10   0   2 32195.3 2963.23   1
 -10   0  -2 36760.8 3337.90   1
 -10   0  -3-566.643 426.088   1
 -10  -1   2 3217.48 863.700   1
 -10  -1   1-5.69507 199.028   1
 -10  -1   0 516.866 246.649   1
  10   1   0 747.182 449.475   1
  10   1   1 1167.81 576.998   1
 -10  -1  -1 1367.84 497.080   1
 -10   1  -1 1773.63 704.321   1
 -10   1  -2 329.817 448.011   1
 -10  -1  -2-272.260 378.855   1
  10   1   2-305.339 405.081   1
 -10  -2   4 455.622 392.376   1
 -10  -2   3 45127.7 3044.07   1
 -10  -2   2 5630.66 1097.78   1
  10   2  -1 51576.7 3132.66   1
 -10  -2   1 53150.9 3549.08   1
  10   2   0-33.9586 218.588   1
 -10  -2   0 276.430 243.197   1
  10   2   1 43002.0 3166.24   1
 -10  -2  -1 37551.1 3306.85   1
 -10  -2  -2 2303.23 1014.08   1
  10   2   2 1867.45 622.313   1
 -10  -3   4 80.4382 163.290   1
 -10  -3   3-198.827 316.360   1
  10   3  -2 767.653 291.080   1
 -10  -3   2 673.946 359.156   1
 -10  -3   1 900.896 554.711   1
  10   3  -1 1176.85 561.692   1
  10   3   0 666.399 392.189   1
 -10  -3   0 420.889 333.084   1
 -10  -3  -1-7.24899 431.412   1
  10   3   1 282.273 89.1241   1
 -10  -3  -2 2260.93 1051.49   1
  10   3   2 1917.37 747.892   1
  10   4  -3 8564.37 1169.23   1
  10   4  -2 28554.8 2247.60   1
  10   4  -1 5430.33 954.450   1
  10   4   1 5397.74 1157.47   1
  10   5  -3 117.559 148.523   1
  10   5  -2 1137.53 437.558   1
  10   5  -1 143.702 110.839   1
  10   6  -3 154.901 223.112   1
 -11   0   0 4749.16 1218.96   1
 -11   0  -1-154.711 317.958   1
  11   0   1-6.70019 329.762   1
 -11  -1   2 14906.8 1964.58   1
 -11  -1   1 19964.3 2318.89   1
 -11  -1   0 1993.50 655.512   1
  11   1   0 3038.83 932.866   1
  11   1   1 2400.23 785.420   1
 -11  -1  -1 1866.61 742.582   1
 -11  -2   3 1700.34 684.244   1
 -11  -2   2 9.06694 455.525   1
 -11  -2   1 525.202 704.281   1
  11   2  -1-710.720 424.470   1
  11   2   0 994.602 486.005   1
 -11  -2   0 1184.83 640.020   1
  11   2   1 2142.84 861.105   1
 -11  -2  -1 1501.55 849.735   1
 -11  -3   4 36249.8 2962.99   1
 -11  -3   3 2736.77 991.192   1
 -11  -3   2 6979.70 1409.40   1
  11   3  -2 8133.17 1197.80   1
  11   3  -1 9464.29 1260.22   1
 -11  -3   1 9561.73 1820.75   1
  11   3   0 34274.1 2770.65   1
 -11  -3   0 26874.2 3036.53   1
  11   4  -3 253.057 89.4921   1
  11   4  -2 1102.59 264.796   1
 -11  -4   2 849.222 658.671   1
  11   4  -1 1636.65 675.964   1
  11   4   0-19.8152 350.227   1
  11   5  -3 7964.03 1170.41   1
  11   5  -2 390.519 254.896   1
  11   5  -1 17754.3 1846.64   1
  11   5   0-28.7504 241.977   1
 -12  -1   1 801.912 448.751   1
 -12  -2   3 48756.9 3679.10   1
 -12  -2   2 14089.1 2006.17   1
 -12  -2   1 2805.87 1156.26   1
 -12  -3   3 3227.06 1057.00   1
 -12  -3   2 11304.6 1981.43   1
  12   3  -1 4419.19 885.963   1
 -12  -3   1 5039.73 1355.04   1
 -12  -4   3 692.700 414.014   1
 -12  -4   2 9388.47 1843.01   1
  12   4  -2 12859.2 1751.98   1
  12   5  -3-49.4829 121.236   1
  12   5  -2 278.813 336.179   1
 -13  -3   3 5789.75 1440.95   1
 -13  -4   3 767.502 639.892   1
   0   0   0    0.00    0.00   0

TITL slav_p08_s2 in P2(1)/c
REM P2(1)/c (#14 in standard setting)
CELL 0.41106   8.812725   8.642600   6.594510  90.0000  90.5337  90.0000
ZERR    4.00   0.000887   0.006063   0.001511   0.0000   0.0112   0.0000
LATT  1
SYMM -x, y+1/2,-z+1/2
SFAC O Al Si Sr
UNIT 32.00 8.00 8.00 4.00
TREF
HKLF 4
END
;
_shelx_hkl_checksum              3421
loop_
_space_group_symop_operation_xyz
'x, y, z'
'-x, y+1/2, -z+1/2'
'-x, -y, -z'
'x, -y-1/2, z-1/2'
loop_
_atom_site_label
_atom_site_type_symbol
_atom_site_fract_x
_atom_site_fract_y
_atom_site_fract_z
_atom_site_U_iso_or_equiv
_atom_site_adp_type
_atom_site_occupancy
_atom_site_site_symmetry_order
_atom_site_calc_flag
_atom_site_refinement_flags_posn
_atom_site_refinement_flags_adp
_atom_site_refinement_flags_occupancy
_atom_site_disorder_assembly
_atom_site_disorder_group
Sr1 Sr 0.75118(16) 0.6123(5) 0.2698(4) 0.042(2) Uani 1 1 d . . . . .
Si1 Si 0.5846(5) 0.5427(17) 0.7785(11) 0.041(5) Uani 1 1 d . . . . .
Si2 Si 1.0754(5) 0.7213(17) 0.5156(10) 0.042(5) Uani 1 1 d . . . . .
Al1 Al 0.9121(5) 0.5331(19) 0.8120(12) 0.041(5) Uani 1 1 d . . . . .
Al2 Al 0.4074(6) 0.766(2) 1.0147(12) 0.046(6) Uani 1 1 d . . . . .
O1 O 0.7387(15) 0.605(4) 0.892(3) 0.027(4) Uiso 1 1 d . . . . .
O2 O 0.9388(14) 0.342(4) 0.734(2) 0.024(3) Uiso 1 1 d . . . . .
O3 O 1.0824(15) 0.902(3) 0.431(2) 0.026(4) Uiso 1 1 d . . . . .
O4 O 0.4257(14) 0.597(3) 0.885(2) 0.022(3) Uiso 1 1 d . . . . .
O5 O 0.5826(16) 0.638(4) 0.574(3) 0.032(4) Uiso 1 1 d . . . . .
O6 O 1.2347(14) 0.655(4) 0.567(2) 0.024(3) Uiso 1 1 d . . . . .
O7 O 0.9185(16) 0.634(4) 0.588(3) 0.034(4) Uiso 1 1 d . . . . .
O8 O 0.5848(17) 0.359(4) 0.751(3) 0.027(3) Uiso 1 1 d . . . . .
loop_
_atom_site_aniso_label
_atom_site_aniso_U_11
_atom_site_aniso_U_22
_atom_site_aniso_U_33
_atom_site_aniso_U_23
_atom_site_aniso_U_13
_atom_site_aniso_U_12
Sr1 0.0125(11) 0.072(6) 0.0412(18) 0.0006(13) 0.0039(9) -0.0002(8)
Si1 0.010(2) 0.072(17) 0.042(4) 0.004(5) 0.001(3) -0.001(3)
Si2 0.010(2) 0.085(16) 0.032(4) -0.002(5) 0.003(2) 0.002(3)
Al1 0.009(2) 0.082(17) 0.033(4) 0.009(5) 0.008(2) -0.007(3)
Al2 0.010(2) 0.09(2) 0.039(5) 0.007(5) 0.003(3) -0.004(4)
loop_
_atom_type_symbol
_atom_type_description
_atom_type_scat_dispersion_real
_atom_type_scat_dispersion_imag
_atom_type_scat_source
O O 0.0017 0.0018 'International Tables Vol C Tables 4.2.6.8 and 6.1.1.4'
Al Al 0.0192 0.0163 'International Tables Vol C Tables 4.2.6.8 and 6.1.1.4'
Si Si 0.0265 0.0226 'International Tables Vol C Tables 4.2.6.8 and 6.1.1.4'
Sr Sr 0.2429 1.2951 'International Tables Vol C Tables 4.2.6.8 and 6.1.1.4'
loop_
_geom_angle_atom_site_label_1
_geom_angle_atom_site_label_2
_geom_angle_atom_site_label_3
_geom_angle
_geom_angle_site_symmetry_1
_geom_angle_site_symmetry_3
_geom_angle_publ_flag
O1 Sr1 O5 141.0(5) 1_554 . ?
O1 Sr1 O6 113.5(9) 1_554 3_766 ?
O5 Sr1 O6 76.7(9) . 3_766 ?
O1 Sr1 O7 147.2(5) 1_554 . ?
O5 Sr1 O7 71.4(5) . . ?
O6 Sr1 O7 72.2(9) 3_766 . ?
O1 Sr1 O1 109.7(7) 1_554 4_575 ?
O5 Sr1 O1 68.9(9) . 4_575 ?
O6 Sr1 O1 136.8(6) 3_766 4_575 ?
O7 Sr1 O1 72.6(8) . 4_575 ?
O1 Sr1 O4 64.3(7) 1_554 3_666 ?
O5 Sr1 O4 91.1(7) . 3_666 ?
O6 Sr1 O4 64.0(6) 3_766 3_666 ?
O7 Sr1 O4 135.5(10) . 3_666 ?
O1 Sr1 O4 139.3(6) 4_575 3_666 ?
O1 Sr1 O3 60.7(8) 1_554 2_745 ?
O5 Sr1 O3 141.3(10) . 2_745 ?
O6 Sr1 O3 64.6(6) 3_766 2_745 ?
O7 Sr1 O3 98.0(7) . 2_745 ?
O1 Sr1 O3 145.0(6) 4_575 2_745 ?
O4 Sr1 O3 70.3(6) 3_666 2_745 ?
O1 Sr1 O2 91.7(5) 1_554 3_766 ?
O5 Sr1 O2 125.9(5) . 3_766 ?
O6 Sr1 O2 95.2(7) 3_766 3_766 ?
O7 Sr1 O2 55.5(5) . 3_766 ?
O1 Sr1 O2 84.9(7) 4_575 3_766 ?
O4 Sr1 O2 133.5(7) 3_666 3_766 ?
O3 Sr1 O2 63.2(7) 2_745 3_766 ?
O1 Sr1 O7 68.1(7) 1_554 4_575 ?
O5 Sr1 O7 124.6(9) . 4_575 ?
O6 Sr1 O7 146.5(5) 3_766 4_575 ?
O7 Sr1 O7 89.6(7) . 4_575 ?
O1 Sr1 O7 55.7(6) 4_575 4_575 ?
O4 Sr1 O7 132.0(6) 3_666 4_575 ?
O3 Sr1 O7 91.5(8) 2_745 4_575 ?
O2 Sr1 O7 51.8(7) 3_766 4_575 ?
O1 Sr1 O5 63.8(7) 1_554 4_575 ?
O5 Sr1 O5 89.2(6) . 4_575 ?
O6 Sr1 O5 151.6(5) 3_766 4_575 ?
O7 Sr1 O5 126.7(9) . 4_575 ?
O1 Sr1 O5 54.1(6) 4_575 4_575 ?
O4 Sr1 O5 92.3(8) 3_666 4_575 ?
O3 Sr1 O5 124.0(6) 2_745 4_575 ?
O2 Sr1 O5 112.9(7) 3_766 4_575 ?
O7 Sr1 O5 61.1(6) 4_575 4_575 ?
O1 Sr1 O8 85.5(5) 1_554 3_666 ?
O5 Sr1 O8 55.5(5) . 3_666 ?
O6 Sr1 O8 97.9(7) 3_766 3_666 ?
O7 Sr1 O8 126.7(5) . 3_666 ?
O1 Sr1 O8 83.7(7) 4_575 3_666 ?
O4 Sr1 O8 56.3(7) 3_666 3_666 ?
O3 Sr1 O8 125.5(6) 2_745 3_666 ?
O2 Sr1 O8 166.6(10) 3_766 3_666 ?
O7 Sr1 O8 115.3(7) 4_575 3_666 ?
O5 Sr1 O8 54.3(7) 4_575 3_666 ?
O1 Sr1 Si1 81.9(5) 1_554 3_666 ?
O5 Sr1 Si1 64.6(5) . 3_666 ?
O6 Sr1 Si1 73.1(4) 3_766 3_666 ?
O7 Sr1 Si1 128.7(5) . 3_666 ?
O1 Sr1 Si1 112.3(4) 4_575 3_666 ?
O4 Sr1 Si1 29.9(4) 3_666 3_666 ?
O3 Sr1 Si1 100.0(5) 2_745 3_666 ?
O2 Sr1 Si1 162.8(7) 3_766 3_666 ?
O7 Sr1 Si1 137.1(4) 4_575 3_666 ?
O5 Sr1 Si1 78.6(5) 4_575 3_666 ?
O8 Sr1 Si1 29.2(6) 3_666 3_666 ?
O5 Si1 O8 114.7(15) . . ?
O5 Si1 O1 103.0(12) . . ?
O8 Si1 O1 112.1(13) . . ?
O5 Si1 O4 102.4(12) . . ?
O8 Si1 O4 109.7(14) . . ?
O1 Si1 O4 114.6(12) . . ?
O5 Si1 Al2 34.6(7) . 4_575 ?
O8 Si1 Al2 120.5(8) . 4_575 ?
O1 Si1 Al2 122.5(12) . 4_575 ?
O4 Si1 Al2 68.4(8) . 4_575 ?
O5 Si1 Al1 94.8(6) . . ?
O8 Si1 Al1 88.7(7) . . ?
O1 Si1 Al1 31.9(9) . . ?
O4 Si1 Al1 146.0(8) . . ?
Al2 Si1 Al1 127.1(4) 4_575 . ?
O5 Si1 Sr1 97.3(7) . 3_666 ?
O8 Si1 Sr1 65.3(6) . 3_666 ?
O1 Si1 Sr1 158.1(7) . 3_666 ?
O4 Si1 Sr1 51.9(9) . 3_666 ?
Al2 Si1 Sr1 71.8(3) 4_575 3_666 ?
Al1 Si1 Sr1 154.0(6) . 3_666 ?
O5 Si1 Sr1 61.3(11) . 4_576 ?
O8 Si1 Sr1 152.6(7) . 4_576 ?
O1 Si1 Sr1 49.4(11) . 4_576 ?
O4 Si1 Sr1 97.4(12) . 4_576 ?
Al2 Si1 Sr1 73.1(4) 4_575 4_576 ?
Al1 Si1 Sr1 65.6(3) . 4_576 ?
Sr1 Si1 Sr1 140.1(4) 3_666 4_576 ?
O5 Si1 Sr1 133.1(12) . 1_556 ?
O8 Si1 Sr1 105.6(7) . 1_556 ?
O1 Si1 Sr1 37.0(6) . 1_556 ?
O4 Si1 Sr1 84.7(6) . 1_556 ?
Al2 Si1 Sr1 131.9(6) 4_575 1_556 ?
Al1 Si1 Sr1 62.4(2) . 1_556 ?
Sr1 Si1 Sr1 121.3(2) 3_666 1_556 ?
Sr1 Si1 Sr1 71.9(2) 4_576 1_556 ?
O5 Si1 Sr1 31.6(9) . . ?
O8 Si1 Sr1 93.2(8) . . ?
O1 Si1 Sr1 91.6(7) . . ?
O4 Si1 Sr1 133.2(8) . . ?
Al2 Si1 Sr1 64.9(2) 4_575 . ?
Al1 Si1 Sr1 70.9(2) . . ?
Sr1 Si1 Sr1 110.1(2) 3_666 . ?
Sr1 Si1 Sr1 70.2(2) 4_576 . ?
Sr1 Si1 Sr1 128.6(2) 1_556 . ?
O6 Si2 O7 121.7(15) . . ?
O6 Si2 O3 112.7(12) . . ?
O7 Si2 O3 124.2(12) . . ?
O6 Si2 O2 98.5(10) . 3_766 ?
O7 Si2 O2 94.5(11) . 3_766 ?
O3 Si2 O2 88.7(13) . 3_766 ?
O6 Si2 O2 94.4(9) . 2_756 ?
O7 Si2 O2 86.5(11) . 2_756 ?
O3 Si2 O2 77.8(12) . 2_756 ?
O2 Si2 O2 164.1(9) 3_766 2_756 ?
O6 Si2 Al1 145.0(10) . 4_575 ?
O7 Si2 Al1 93.2(10) . 4_575 ?
O3 Si2 Al1 34.1(5) . 4_575 ?
O2 Si2 Al1 76.0(10) 3_766 4_575 ?
O2 Si2 Al1 88.1(9) 2_756 4_575 ?
O6 Si2 Sr1 139.1(12) . . ?
O7 Si2 Sr1 46.3(6) . . ?
O3 Si2 Sr1 97.6(5) . . ?
O2 Si2 Sr1 53.8(5) 3_766 . ?
O2 Si2 Sr1 119.3(5) 2_756 . ?
Al1 Si2 Sr1 64.5(3) 4_575 . ?
O6 Si2 Sr1 39.4(10) . 3_766 ?
O7 Si2 Sr1 82.6(11) . 3_766 ?
O3 Si2 Sr1 151.8(5) . 3_766 ?
O2 Si2 Sr1 98.6(11) 3_766 3_766 ?
O2 Si2 Sr1 97.2(8) 2_756 3_766 ?
Al1 Si2 Sr1 173.0(4) 4_575 3_766 ?
Sr1 Si2 Sr1 108.7(4) . 3_766 ?
O6 Si2 Sr1 139.6(7) . 4_576 ?
O7 Si2 Sr1 51.8(11) . 4_576 ?
O3 Si2 Sr1 79.3(7) . 4_576 ?
O2 Si2 Sr1 120.8(6) 3_766 4_576 ?
O2 Si2 Sr1 48.8(4) 2_756 4_576 ?
Al1 Si2 Sr1 62.1(2) 4_575 4_576 ?
Sr1 Si2 Sr1 70.62(12) . 4_576 ?
Sr1 Si2 Sr1 118.4(2) 3_766 4_576 ?
O7 Al1 O1 96.8(11) . . ?
O7 Al1 O2 102.7(14) . . ?
O1 Al1 O2 123.2(12) . . ?
O7 Al1 O3 100.7(10) . 4_576 ?
O1 Al1 O3 119.7(12) . 4_576 ?
O2 Al1 O3 108.2(10) . 4_576 ?
O7 Al1 O3 175.5(14) . 2_746 ?
O1 Al1 O3 87.6(10) . 2_746 ?
O2 Al1 O3 73.7(12) . 2_746 ?
O3 Al1 O3 78.1(11) 4_576 2_746 ?
O7 Al1 Si2 90.4(11) . 4_576 ?
O1 Al1 Si2 91.9(10) . 4_576 ?
O2 Al1 Si2 139.8(6) . 4_576 ?
O3 Al1 Si2 31.7(9) 4_576 4_576 ?
O3 Al1 Si2 90.7(8) 2_746 4_576 ?
O7 Al1 Si1 87.7(6) . . ?
O1 Al1 Si1 29.9(8) . . ?
O2 Al1 Si1 98.1(6) . . ?
O3 Al1 Si1 149.6(9) 4_576 . ?
O3 Al1 Si1 95.5(5) 2_746 . ?
Si2 Al1 Si1 120.4(5) 4_576 . ?
O7 Al1 Al1 142.7(9) . 3_767 ?
O1 Al1 Al1 105.5(7) . 3_767 ?
O2 Al1 Al1 89.7(9) . 3_767 ?
O3 Al1 Al1 42.3(8) 4_576 3_767 ?
O3 Al1 Al1 35.8(5) 2_746 3_767 ?
Si2 Al1 Al1 59.9(5) 4_576 3_767 ?
Si1 Al1 Al1 125.6(4) . 3_767 ?
O7 Al1 Sr1 90.9(7) . 3_766 ?
O1 Al1 Sr1 171.7(7) . 3_766 ?
O2 Al1 Sr1 57.6(5) . 3_766 ?
O3 Al1 Sr1 55.2(7) 4_576 3_766 ?
O3 Al1 Sr1 84.8(6) 2_746 3_766 ?
Si2 Al1 Sr1 84.8(2) 4_576 3_766 ?
Si1 Al1 Sr1 154.7(5) . 3_766 ?
Al1 Al1 Sr1 66.2(3) 3_767 3_766 ?
O7 Al1 Sr1 59.2(11) . 4_576 ?
O1 Al1 Sr1 48.2(11) . 4_576 ?
O2 Al1 Sr1 152.7(6) . 4_576 ?
O3 Al1 Sr1 95.9(10) 4_576 4_576 ?
O3 Al1 Sr1 125.2(8) 2_746 4_576 ?
Si2 Al1 Sr1 65.1(4) 4_576 4_576 ?
Si1 Al1 Sr1 63.3(3) . 4_576 ?
Al1 Al1 Sr1 117.2(7) 3_767 4_576 ?
Sr1 Al1 Sr1 135.5(4) 3_766 4_576 ?
O7 Al1 Sr1 132.5(12) . 1_556 ?
O1 Al1 Sr1 44.4(6) . 1_556 ?
O2 Al1 Sr1 120.6(8) . 1_556 ?
O3 Al1 Sr1 84.5(6) 4_576 1_556 ?
O3 Al1 Sr1 51.9(7) 2_746 1_556 ?
Si2 Al1 Sr1 69.6(3) 4_576 1_556 ?
Si1 Al1 Sr1 68.9(2) . 1_556 ?
Al1 Al1 Sr1 61.2(3) 3_767 1_556 ?
Sr1 Al1 Sr1 127.4(2) 3_766 1_556 ?
Sr1 Al1 Sr1 73.4(3) 4_576 1_556 ?
O7 Al1 Sr1 30.2(8) . . ?
O1 Al1 Sr1 84.5(6) . . ?
O2 Al1 Sr1 86.8(6) . . ?
O3 Al1 Sr1 130.4(8) 4_576 . ?
O3 Al1 Sr1 150.1(8) 2_746 . ?
Si2 Al1 Sr1 118.2(5) 4_576 . ?
Si1 Al1 Sr1 64.6(2) . . ?
Al1 Al1 Sr1 169.7(3) 3_767 . ?
Sr1 Al1 Sr1 103.8(2) 3_766 . ?
Sr1 Al1 Sr1 67.5(2) 4_576 . ?
Sr1 Al1 Sr1 128.7(3) 1_556 . ?
O4 Al2 O6 122.4(11) . 4_476 ?
O4 Al2 O5 114.9(11) . 4_576 ?
O6 Al2 O5 122.5(16) 4_476 4_576 ?
O4 Al2 O8 85.3(14) . 3_667 ?
O6 Al2 O8 95.2(10) 4_476 3_667 ?
O5 Al2 O8 93.7(10) 4_576 3_667 ?
O4 Al2 O8 84.3(12) . 2_656 ?
O6 Al2 O8 93.0(10) 4_476 2_656 ?
O5 Al2 O8 87.9(11) 4_576 2_656 ?
O8 Al2 O8 169.1(11) 3_667 2_656 ?
O4 Al2 Si1 138.6(6) . 4_576 ?
O6 Al2 Si1 97.3(10) 4_476 4_576 ?
O5 Al2 Si1 30.0(7) 4_576 4_576 ?
O8 Al2 Si1 79.5(8) 3_667 4_576 ?
O8 Al2 Si1 106.6(10) 2_656 4_576 ?
O4 Al2 Sr1 162.0(5) . 2_656 ?
O6 Al2 Sr1 40.2(9) 4_476 2_656 ?
O5 Al2 Sr1 82.2(11) 4_576 2_656 ?
O8 Al2 Sr1 99.5(9) 3_667 2_656 ?
O8 Al2 Sr1 91.5(10) 2_656 2_656 ?
Si1 Al2 Sr1 59.3(4) 4_576 2_656 ?
O4 Al2 Sr1 86.6(7) . 4_576 ?
O6 Al2 Sr1 136.7(12) 4_476 4_576 ?
O5 Al2 Sr1 40.2(6) 4_576 4_576 ?
O8 Al2 Sr1 120.7(5) 3_667 4_576 ?
O8 Al2 Sr1 55.5(5) 2_656 4_576 ?
Si1 Al2 Sr1 69.3(2) 4_576 4_576 ?
Sr1 Al2 Sr1 105.3(4) 2_656 4_576 ?
O4 Al2 Sr1 80.8(6) . 1_556 ?
O6 Al2 Sr1 141.3(6) 4_476 1_556 ?
O5 Al2 Sr1 50.8(10) 4_576 1_556 ?
O8 Al2 Sr1 53.0(5) 3_667 1_556 ?
O8 Al2 Sr1 121.8(5) 2_656 1_556 ?
Si1 Al2 Sr1 59.3(3) 4_576 1_556 ?
Sr1 Al2 Sr1 116.0(3) 2_656 1_556 ?
Sr1 Al2 Sr1 67.68(12) 4_576 1_556 ?
Si1 O1 Al1 118.2(15) . . ?
Si1 O1 Sr1 119.7(9) . 1_556 ?
Al1 O1 Sr1 106.5(8) . 1_556 ?
Si1 O1 Sr1 101.8(11) . 4_576 ?
Al1 O1 Sr1 101.7(11) . 4_576 ?
Sr1 O1 Sr1 106.6(10) 1_556 4_576 ?
Si2 O2 Al1 124.6(16) 3_766 . ?
Si2 O2 Si2 129.0(18) 3_766 2_746 ?
Al1 O2 Si2 104.1(10) . 2_746 ?
Si2 O2 Sr1 95.7(6) 3_766 3_766 ?
Al1 O2 Sr1 90.1(9) . 3_766 ?
Si2 O2 Sr1 98.9(6) 2_746 3_766 ?
Si2 O3 Al1 114.2(12) . 4_575 ?
Si2 O3 Al1 104.0(10) . 2_756 ?
Al1 O3 Al1 101.9(11) 4_575 2_756 ?
Si2 O3 Sr1 145.3(10) . 2_755 ?
Al1 O3 Sr1 91.9(10) 4_575 2_755 ?
Al1 O3 Sr1 91.5(11) 2_756 2_755 ?
Si1 O4 Al2 123.2(14) . . ?
Si1 O4 Sr1 98.2(12) . 3_666 ?
Al2 O4 Sr1 137.6(7) . 3_666 ?
Si1 O5 Al2 115.4(10) . 4_575 ?
Si1 O5 Sr1 129.2(15) . . ?
Al2 O5 Sr1 112.5(9) 4_575 . ?
Si1 O5 Sr1 90.3(10) . 4_576 ?
Al2 O5 Sr1 100.7(15) 4_575 4_576 ?
Sr1 O5 Sr1 96.7(7) . 4_576 ?
Si2 O6 Al2 127.9(18) . 4_675 ?
Si2 O6 Sr1 117.9(11) . 3_766 ?
Al2 O6 Sr1 114.2(10) 4_675 3_766 ?
Si2 O7 Al1 121.1(9) . . ?
Si2 O7 Sr1 105.9(9) . . ?
Al1 O7 Sr1 130.2(14) . . ?
Si2 O7 Sr1 101.7(15) . 4_576 ?
Al1 O7 Sr1 90.4(10) . 4_576 ?
Sr1 O7 Sr1 95.9(7) . 4_576 ?
Si1 O8 Al2 118.3(13) . 3_667 ?
Si1 O8 Al2 121.4(14) . 2_646 ?
Al2 O8 Al2 120.1(17) 3_667 2_646 ?
Si1 O8 Sr1 85.5(8) . 3_666 ?
Al2 O8 Sr1 96.5(7) 3_667 3_666 ?
Al2 O8 Sr1 92.1(6) 2_646 3_666 ?
loop_
_geom_bond_atom_site_label_1
_geom_bond_atom_site_label_2
_geom_bond_distance
_geom_bond_site_symmetry_2
_geom_bond_publ_flag
Sr1 O1 2.492(17) 1_554 ?
Sr1 O5 2.515(18) . ?
Sr1 O6 2.55(3) 3_766 ?
Sr1 O7 2.561(16) . ?
Sr1 O1 2.58(3) 4_575 ?
Sr1 O4 2.59(2) 3_666 ?
Sr1 O3 2.69(2) 2_745 ?
Sr1 O2 2.761(14) 3_766 ?
Sr1 O7 2.91(3) 4_575 ?
Sr1 O5 2.92(3) 4_575 ?
Sr1 O8 2.973(15) 3_666 ?
Sr1 Si1 3.261(8) 3_666 ?
Si1 O5 1.58(3) . ?
Si1 O8 1.59(3) . ?
Si1 O1 1.636(18) . ?
Si1 O4 1.642(17) . ?
Si1 Al2 2.856(15) 4_575 ?
Si1 Al1 2.894(7) . ?
Si2 O6 1.551(17) . ?
Si2 O7 1.65(2) . ?
Si2 O3 1.66(3) . ?
Si2 O2 1.74(2) 3_766 ?
Si2 O2 1.96(3) 2_756 ?
Si2 Al1 2.889(17) 4_575 ?
Al1 O7 1.71(2) . ?
Al1 O1 1.736(19) . ?
Al1 O2 1.75(4) . ?
Al1 O3 1.776(17) 4_576 ?
Al1 O3 2.04(3) 2_746 ?
Al1 Al1 2.967(16) 3_767 ?
Al2 O4 1.70(3) . ?
Al2 O6 1.707(19) 4_476 ?
Al2 O5 1.79(2) 4_576 ?
Al2 O8 1.89(3) 3_667 ?
Al2 O8 1.93(2) 2_656 ?
