#------------------------------------------------------------------------------
#$Date: 2021-07-04 04:49:46 +0300 (Sun, 04 Jul 2021) $
#$Revision: 266973 $
#$URL: file:///home/coder/svn-repositories/cod/cif/1/56/31/1563151.cif $
#------------------------------------------------------------------------------
#
# This file is available in the Crystallography Open Database (COD),
# http://www.crystallography.net/
#
# All data on this site have been placed in the public domain by the
# contributors.
#
data_1563151
loop_
_publ_author_name
'Gorelova, Liudmila A.'
'Pakhomova, Anna S.'
'Krzhizhanovskaya, Maria G.'
'Pankin, Dmitrii V.'
'Krivovichev, Sergey V.'
'Dubrovinsky, Leonid S.'
'Kasatkin, Anatoly V.'
_publ_section_title
;
 Crystal Structure Evolution of Slawsonite SrAl2Si2O8 and Paracelsian
 BaAl2Si2O8 upon Compression and Decompression
;
_journal_issue                   23
_journal_name_full               'The Journal of Physical Chemistry C'
_journal_page_first              13014
_journal_page_last               13023
_journal_paper_doi               10.1021/acs.jpcc.1c02949
_journal_volume                  125
_journal_year                    2021
_chemical_formula_sum            'Al2 O8 Si2 Sr'
_chemical_formula_weight         325.76
_space_group_crystal_system      monoclinic
_space_group_IT_number           14
_space_group_name_Hall           '-P 2ybc'
_space_group_name_H-M_alt        'P 1 21/c 1'
_audit_creation_method           SHELXL-2018/3
_cell_angle_alpha                90
_cell_angle_beta                 89.13(3)
_cell_angle_gamma                90
_cell_formula_units_Z            4
_cell_length_a                   8.5901(17)
_cell_length_b                   8.483(8)
_cell_length_c                   6.464(2)
_cell_measurement_reflns_used    747
_cell_measurement_temperature    293(2)
_cell_measurement_theta_max      19.062
_cell_measurement_theta_min      2.743
_cell_volume                     471.0(5)
_computing_structure_refinement  'SHELXL-2018/3 (Sheldrick, 2018)'
_diffrn_ambient_temperature      293(2)
_diffrn_measured_fraction_theta_full 0.391
_diffrn_measured_fraction_theta_max 0.227
_diffrn_measurement_device_type
'esperanto-CrysAlisPro-abstract goniometer imported esperanto images'
_diffrn_radiation_type           synchrotron
_diffrn_radiation_wavelength     0.41106
_diffrn_reflns_av_R_equivalents  0.0878
_diffrn_reflns_av_unetI/netI     0.1346
_diffrn_reflns_Laue_measured_fraction_full 0.391
_diffrn_reflns_Laue_measured_fraction_max 0.227
_diffrn_reflns_limit_h_max       12
_diffrn_reflns_limit_h_min       -12
_diffrn_reflns_limit_k_max       4
_diffrn_reflns_limit_k_min       -6
_diffrn_reflns_limit_l_max       9
_diffrn_reflns_limit_l_min       -9
_diffrn_reflns_number            747
_diffrn_reflns_point_group_measured_fraction_full 0.391
_diffrn_reflns_point_group_measured_fraction_max 0.227
_diffrn_reflns_theta_full        14.279
_diffrn_reflns_theta_max         19.062
_diffrn_reflns_theta_min         2.743
_exptl_absorpt_coefficient_mu    2.886
_exptl_crystal_colour            colorless
_exptl_crystal_density_diffrn    4.594
_exptl_crystal_density_meas      ?
_exptl_crystal_density_method    none
_exptl_crystal_description       isosymmetric
_exptl_crystal_F_000             624
_exptl_crystal_size_max          0.010
_exptl_crystal_size_mid          0.010
_exptl_crystal_size_min          0.005
_refine_diff_density_max         1.597
_refine_diff_density_min         -1.622
_refine_diff_density_rms         0.319
_refine_ls_extinction_method     none
_refine_ls_goodness_of_fit_ref   1.318
_refine_ls_hydrogen_treatment    undef
_refine_ls_matrix_type           full
_refine_ls_number_parameters     78
_refine_ls_number_reflns         449
_refine_ls_number_restraints     0
_refine_ls_restrained_S_all      1.318
_refine_ls_R_factor_all          0.2117
_refine_ls_R_factor_gt           0.1357
_refine_ls_shift/su_max          0.000
_refine_ls_shift/su_mean         0.000
_refine_ls_structure_factor_coef Fsqd
_refine_ls_weighting_details
'w=1/[\s^2^(Fo^2^)+(0.2000P)^2^] where P=(Fo^2^+2Fc^2^)/3'
_refine_ls_weighting_scheme      calc
_refine_ls_wR_factor_gt          0.3502
_refine_ls_wR_factor_ref         0.4337
_reflns_Friedel_coverage         0.000
_reflns_number_gt                218
_reflns_number_total             449
_reflns_threshold_expression     'I > 2\s(I)'
_cod_data_source_file            slav_p12.cif
_cod_data_source_block           shelx
_cod_depositor_comments
;
The following automatic conversions were performed:

data item '_exptl_crystal_density_meas' value 'none' was changed to
'?' -- the value is perceived as not measured.

Automatic conversion script
Id: cif_fix_values 7556 2019-12-06 15:28:31Z antanas 

 Adding full bibliography for 1563145--1563156.cif.
;
_cod_original_sg_symbol_H-M      'P 21/c'
_cod_database_code               1563151
_shelx_shelxl_version_number     2018/3
_shelx_space_group_comment
;
The symmetry employed for this shelxl refinement is uniquely defined
by the following loop, which should always be used as a source of
symmetry information in preference to the above space-group names.
They are only intended as comments.
;
_shelx_res_file
;
TITL shelxt_a.res in P2(1)/c
    shelx.res
    created by SHELXL-2018/3 at 15:45:34 on 19-Jan-2021
REM Old TITL slav_p12_s1 in P2(1)/c
REM SHELXT solution in P2(1)/c: R1 0.401, Rweak 0.057, Alpha 0.065
REM <I/s>   0.284 for   32 systematic absences,  Orientation as input
REM Formula found by SHELXT:  O8 Al Si3 Sr

CELL  0.41106   8.5901   8.4835   6.4635   90.000   89.131   90.000
ZERR    4.000   0.0017   0.0082   0.0021    0.000    0.026    0.000
LATT  1
SYMM -X, 1/2+Y, 1/2-Z
SFAC O AL SI SR
DISP O 0.00165 0.00179 4.1539
DISP Si 0.026465 0.022605 52.36784
DISP Al 0.019188 0.016298 37.75624
DISP Sr 0.242892 1.295112 3000.317
UNIT 32.00 8.00 8.00 4.00

OMIT    3   3   2
OMIT    -7   3   2
OMIT    -1   1   1
OMIT    -1   1   7
OMIT     0   4   6
OMIT     0   2   2
OMIT    -6   3   1
OMIT 1 1 4

L.S. 20
BOND
ACTA
LIST 10
FMAP 2
PLAN 20
REM EXTI    0.000000
WGHT    0.200000
FVAR       1.80424
SR1   4    0.250924    0.383671    0.267884    11.00000    0.03650    0.10151 =
         0.02616    0.00489   -0.01134    0.00178
SI1   3    0.585971    0.537202    0.220426    11.00000    0.02482    0.12058 =
         0.03451   -0.01004   -0.01345   -0.00652
SI2   3    0.077289    0.720904    0.479469    11.00000    0.03690    0.07554 =
         0.02590   -0.00698   -0.00010    0.00010
AL1   2   -0.089250    0.520197    0.189012    11.00000    0.03298    0.06948 =
         0.01995    0.00157   -0.01913   -0.00456
AL2   2    0.406929    0.743333    0.488163    11.00000    0.03066    0.11737 =
         0.02266    0.00275   -0.00640   -0.00136
O1    1    0.738706    0.619642    0.106477    11.00000    0.05375
O2    1    0.055741    0.631684    0.726004    11.00000    0.03832
O3    1    0.085099    0.596146    0.067633    11.00000    0.02625
O4    1    0.421662    0.597005    0.114541    11.00000    0.03061
O5    1    0.588562    0.618472    0.439522    11.00000    0.04484
O6    1    0.228549    0.662932    0.429203    11.00000    0.03796
O7    1   -0.085191    0.637520    0.426019    11.00000    0.01793
O8    1    0.585085    0.359914    0.244632    11.00000    0.03363
HKLF 4




REM  shelxt_a.res in P2(1)/c
REM wR2 = 0.4337, GooF = S = 1.318, Restrained GooF = 1.318 for all data
REM R1 = 0.1357 for 218 Fo > 4sig(Fo) and 0.2117 for all 449 data
REM 78 parameters refined using 0 restraints

END

WGHT      0.2000      0.0000

REM Highest difference peak  1.597,  deepest hole -1.622,  1-sigma level  0.319
Q1    1   0.7135  0.7330  0.1324  11.00000  0.05    1.29
Q2    1   0.1444  0.3795  0.2342  11.00000  0.05    1.10
Q3    1   0.6426  0.3795  0.1288  11.00000  0.05    1.09
Q4    1   0.2553  0.5985  0.4075  11.00000  0.05    1.05
Q5    1   0.6381  0.3829  0.2966  11.00000  0.05    0.99
Q6    1   0.4201  0.7095  0.2931  11.00000  0.05    0.99
Q7    1   0.3572  0.3739  0.3258  11.00000  0.05    0.99
Q8    1  -0.2193  0.7158  0.3576  11.00000  0.05    0.98
Q9    1   0.6968  0.5429  0.2279  11.00000  0.05    0.98
Q10   1   0.2373  0.5672  0.1411  11.00000  0.05    0.90
Q11   1   0.0562  0.5136  0.6213  11.00000  0.05    0.89
Q12   1   0.6582  0.6077  0.0090  11.00000  0.05    0.88
Q13   1   0.2281  0.6118  0.1109  11.00000  0.05    0.87
Q14   1   0.0207  0.6374  0.5095  11.00000  0.05    0.81
Q15   1   0.5795  0.6812  0.4161  11.00000  0.05    0.80
Q16   1  -0.0648  0.5414  0.0300  11.00000  0.05    0.80
Q17   1   0.0760  0.7005  0.2962  11.00000  0.05    0.79
Q18   1   0.0079  0.4842  0.2222  11.00000  0.05    0.78
Q19   1   0.3817  0.6200  0.5170  11.00000  0.05    0.77
Q20   1   0.7023  0.5009  0.1040  11.00000  0.05    0.75
;
_shelx_res_checksum              11639
_shelx_hkl_file
;
   0   1  -2 254.064 85.3855   1
   0  -1   2 184.535 100.008   1
   0   1  -3 5022.04 598.092   1
   0   1  -4 15466.0 1371.94   1
   0   1  -5 151.923 70.5239   1
   0   1  -6-230.029 195.206   1
   0  -2   2 22953.0 869.113   1
   0   2  -3 129595. 2347.87   1
   0  -2   3 130730. 2902.83   1
   0   2  -4 3973.54 469.449   1
   0  -2   4 3430.81 575.414   1
   0   2  -5 5142.34 624.966   1
   0   2  -6 811.547 259.444   1
   0   2  -7 4916.48 729.487   1
   0   2  -8 847.421 325.655   1
   0  -3   3 1859.32 307.841   1
   0  -3   4 3089.57 507.872   1
   0  -3   5 8739.86 1004.13   1
   0   3  -6 7444.61 748.071   1
   0   3  -7 4227.41 589.554   1
   0  -4   4 358.354 164.543   1
   0  -4   5 283.025 162.618   1
   0  -4   6 27340.7 1975.68   1
   0  -5   5 2103.97 437.104   1
   0  -5   6 346.755 297.317   1
   0  -6   6 403.267 221.564   1
   1   0  -3 117.012 161.751   1
   1   0  -2 4392.34 602.393   1
  -1   0   2 3684.57 573.876   1
  -1   0   1 19.9199 19.5214   1
   1   0  -1-52.1480 71.4520   1
   1   1  -7 47.6276 47.5312   1
   1   1  -6 4403.65 843.266   1
   1   1  -5 4785.05 812.636   1
   1   1  -4-5.38227 164.811   1
  -1  -1   4 45.7898 125.593   1
  -1  -1   3 3451.07 602.644   1
   1   1  -3 3058.79 517.009   1
   1   1  -2 38974.0 1437.49   1
  -1  -1   2 37739.6 1620.95   1
   1   1  -1 7502.72 547.446   1
  -1  -1   1 7657.18 537.153   1
  -1   1  -4-20.3284 100.709   1
   1   2  -8 165.369 31.1235   1
   1   2  -7 3546.94 716.594   1
   1   2  -6 97.1524 49.8261   1
   1   2  -5 556.139 224.505   1
  -1  -2   5 451.343 292.244   1
  -1  -2   4 1166.84 396.616   1
   1   2  -4 1665.77 385.499   1
  -1  -2   3 4655.36 653.260   1
   1   2  -3 4518.58 536.911   1
  -1  -2   2-8.01923 19.7694   1
  -1   2  -4 6604.45 479.393   1
  -1   2  -5 2083.38 327.371   1
  -1   2  -6 1535.42 314.132   1
  -1   2  -7 1514.32 317.223   1
   1   3  -8 3550.81 683.002   1
   1   3  -7-145.892 210.580   1
  -1  -3   6 71.1044 54.5853   1
   1   3  -6 202.823 125.970   1
   1   3  -5 1413.08 345.855   1
  -1  -3   5 1066.63 484.299   1
  -1  -3   4 22891.9 1688.44   1
  -1  -3   3 3809.18 537.226   1
   1  -3   3 10372.2 542.905   1
   1  -3   4 11210.1 812.642   1
  -1  -4   7 115.530 221.698   1
  -1  -4   6 1710.45 608.496   1
  -1  -4   5 90.6989 116.175   1
  -1  -4   4 2025.10 439.012   1
   1  -4   4 442.382 143.568   1
   1  -4   5 77.0045 118.879   1
  -1  -5   7 1068.37 515.673   1
  -1  -5   6-33.0038 104.743   1
  -1  -5   5 605.998 347.225   1
   1  -5   5 2644.40 431.269   1
   1  -5   6 224.065 164.400   1
  -1  -6   7-113.964 297.877   1
   1  -6   6-146.042 141.057   1
   2   0  -4 745.899 391.541   1
  -2   0   3 177.993 206.845   1
   2   0  -3-110.506 106.812   1
   2   0  -2 19978.8 1530.40   1
  -2   0   2 20672.9 1572.31   1
   2   0  -1-18.0172 54.6668   1
  -2   0   1-13.9259 30.5163   1
   2   0   0 1167.86 215.512   1
  -2   0   0 1122.12 214.691   1
   2   1  -7 4446.36 964.062   1
   2   1  -6 956.395 448.852   1
   2   1  -5 13948.0 1556.74   1
   2   1  -4 109.246 124.090   1
  -2  -1   4-4.75446 99.4963   1
  -2  -1   3 6953.95 1048.67   1
   2   1  -3 7845.17 915.645   1
  -2  -1   2 2181.42 460.394   1
   2   1  -2 2233.43 390.276   1
  -2   1   1 416.854 223.174   1
   2   1  -1 2030.76 340.640   1
  -2  -1   1 2221.91 346.978   1
   2  -1  -1 931.027 293.693   1
   2  -1   0 46.9027 64.1794   1
  -2   1   0 59.9321 67.7413   1
  -2   1  -1 280.091 118.782   1
   2  -1   1 262.824 65.5520   1
   2   2  -8 994.663 430.333   1
   2   2  -7-53.8826 195.077   1
   2   2  -6 38.9580 73.6362   1
  -2  -2   6 730.380 473.714   1
  -2  -2   5 5794.82 1099.71   1
   2   2  -5 7331.43 947.805   1
   2   2  -4 375.311 167.172   1
  -2  -2   4 440.547 330.588   1
   2   2  -3 18571.9 1310.18   1
  -2  -2   3 16970.8 1396.30   1
  -2  -2   2 4164.60 571.364   1
  -2   2  -5 5302.94 434.572   1
  -2   2  -6 200.222 91.0766   1
  -2   2  -7 2459.18 402.046   1
   2   3  -8 1199.70 478.039   1
   2   3  -7 88.2278 71.1591   1
  -2  -3   7 197.648 311.756   1
   2   3  -6 216.911 203.387   1
  -2  -3   6-43.7635 280.721   1
  -2  -3   5 145.776 284.804   1
   2   3  -5-154.983 148.459   1
  -2  -3   4 90.1541 131.167   1
  -2  -3   3-14.3680 40.9003   1
  -2  -4   7 193.232 221.118   1
  -2  -4   6 1252.25 600.592   1
  -2  -4   5 84.9785 99.3275   1
  -2  -5   7 416.321 367.256   1
  -2  -5   6 1439.57 618.328   1
   2  -5   5 1009.89 219.100   1
   3   0  -5-128.903 306.416   1
   3   0  -4 5537.99 1072.91   1
  -3   0   4 5030.92 1045.50   1
   3   0  -3 159.919 188.412   1
  -3   0   3-116.661 198.448   1
   3   0  -2 15789.0 1458.06   1
  -3   0   2 15124.7 1585.56   1
  -3   0   1 52.1238 94.8288   1
   3   0  -1 52.4360 62.1508   1
  -3   0   0 1481.72 304.971   1
   3   0   0 1282.15 291.535   1
   3   1  -7-222.640 263.952   1
   3   1  -6 226.768 217.203   1
   3   1  -5 9669.08 1300.89   1
  -3  -1   5 8749.44 1449.39   1
   3   1  -4 23693.3 1857.86   1
  -3  -1   4 23198.3 2221.00   1
  -3  -1   3 36379.7 2547.38   1
   3   1  -3 34361.0 2061.19   1
   3  -1  -2 3505.98 770.547   1
  -3  -1   2 5171.67 798.884   1
  -3   1   2 3476.71 769.620   1
   3   1  -2 5197.24 711.332   1
  -3  -1   1 77730.2 2554.16   1
   3  -1  -1 68109.6 3250.80   1
   3   1  -1 78055.4 2462.51   1
  -3   1   1 76032.2 3230.14   1
  -3   1   0 79400.5 2872.17   1
   3  -1   0 74911.5 2618.45   1
   3  -1   1 84568.2 1993.14   1
  -3   1  -1 87203.3 2396.86   1
  -3   1  -2 3671.42 356.493   1
   3   2  -8 55.1342 99.0408   1
   3   2  -7 371.982 318.799   1
   3   2  -6 192.208 210.777   1
  -3  -2   6 304.702 343.037   1
   3   2  -5 19805.2 1703.66   1
  -3  -2   5 19287.4 2159.57   1
   3   2  -4 3954.75 694.906   1
  -3  -2   4 4176.54 919.373   1
  -3  -2   3 1664.89 463.700   1
   3   2  -3 1792.25 435.635   1
   3   2  -2 213.548 150.999   1
  -3  -2   2 236.294 165.893   1
   3  -2   0 1.05220 52.4974   1
   3  -2   1 5490.24 711.449   1
   3  -2   2 58.4576 50.4632   1
  -3   2  -6-12.8956 32.6468   1
  -3   2  -7 845.310 176.077   1
   3   3  -9 273.474 282.086   1
   3   3  -8 307.835 229.232   1
  -3  -3   7 1657.61 656.426   1
   3   3  -7 2250.81 570.871   1
   3   3  -6 9403.35 1185.99   1
  -3  -3   6 10202.3 1634.56   1
   3   3  -5 6177.27 953.626   1
  -3  -3   5 6538.52 1209.85   1
  -3  -3   4 196.299 172.699   1
   3   3  -4 3.60596 40.6005   1
  -3  -3   3 1641.00 466.889   1
   3  -3   2 858.463 327.539   1
  -3  -4   8 1250.62 741.936   1
  -3  -4   7 634.927 528.702   1
  -3  -4   6 8365.07 1550.01   1
  -3  -4   5 578.113 319.275   1
  -3  -5   8-327.204 361.654   1
  -3  -5   7 359.397 383.459   1
  -3  -5   6 1442.49 628.352   1
   4   0  -6 1505.11 591.891   1
  -4   0   5-118.948 215.034   1
   4   0  -5-114.395 137.850   1
   4   0  -4 1377.66 539.236   1
  -4   0   4 905.816 519.401   1
  -4   0   3 37.2656 153.500   1
   4   0  -3-195.332 194.425   1
  -4   0   2 24943.5 2324.69   1
   4   0  -2 24336.6 1825.69   1
   4   0  -1-7.88385 87.4964   1
  -4   0   1-20.0042 38.4158   1
  -4   0   0 1976.03 414.773   1
   4   0   0 1823.75 399.032   1
  -4   0  -1 73.1981 81.8447   1
   4   1  -8-358.266 337.606   1
   4   1  -7 1599.19 642.600   1
   4   1  -6 1106.15 475.988   1
  -4  -1   6 619.053 474.895   1
   4   1  -5 961.591 463.228   1
  -4  -1   5 1021.30 585.566   1
   4  -1  -4-335.516 315.257   1
   4   1  -4 1002.51 358.936   1
  -4  -1   4 1227.71 614.738   1
   4  -1  -3 1447.76 617.326   1
  -4  -1   3 1088.00 504.410   1
  -4   1   3 698.121 413.090   1
   4   1  -3 1353.42 422.755   1
  -4   1   2 582.945 329.217   1
  -4  -1   2 454.007 319.919   1
   4   1  -2 492.430 238.506   1
   4  -1  -2 322.253 268.217   1
  -4  -1   1 401.445 233.438   1
   4  -1  -1 807.089 362.256   1
   4   1  -1 1500.10 410.733   1
  -4   1   1 717.357 361.734   1
   4  -1   0 137.876 90.7236   1
  -4   1   0 182.035 184.842   1
  -4   1  -1 136.916 93.4240   1
   4  -1   1 211.017 96.5027   1
  -4   1  -2 1329.54 278.937   1
   4   2  -9-171.176 177.681   1
   4   2  -8 214.758 240.244   1
  -4  -2   7 1328.59 615.508   1
   4   2  -7 970.453 411.227   1
  -4  -2   6-220.501 219.263   1
   4   2  -6 256.504 224.084   1
  -4  -2   5 4889.39 1215.92   1
   4   2  -5 6054.96 994.361   1
   4   2  -4 2126.71 567.855   1
  -4  -2   4 3033.43 837.468   1
  -4  -2   3 9770.75 1333.31   1
   4   2  -3 11925.1 1273.96   1
   4   2  -2 1666.99 467.980   1
  -4  -2   2 1860.07 542.416   1
   4  -2  -1 21279.3 2040.43   1
  -4   2   1 256.577 395.369   1
   4  -2   0 7.27679 53.4413   1
  -4   2   0-2.69476 130.181   1
   4  -2   1 28736.2 1627.86   1
  -4   2  -1 29408.3 1812.50   1
   4  -2   2 5567.37 523.178   1
  -4   2  -2 5275.54 639.451   1
  -4   2  -3 20176.4 1083.22   1
   4   3  -9-10.4092 116.130   1
   4   3  -8 839.837 444.490   1
  -4  -3   8 885.110 601.459   1
  -4  -3   7 992.099 564.760   1
   4   3  -7 933.516 457.376   1
  -4  -3   6-115.752 258.776   1
   4   3  -6 323.073 287.784   1
  -4  -3   5 771.052 465.701   1
   4   3  -5 139.140 217.601   1
   4   3  -4 2232.86 599.910   1
  -4  -3   4 1461.91 539.191   1
  -4  -3   3 89.4173 84.0610   1
   4  -3   1 376.632 250.644   1
   4  -3   2 85.8118 116.352   1
   4  -3   3-5.47503 55.4501   1
   4   4  -9 6.26791 139.531   1
   4   4  -8 765.163 469.303   1
  -4  -4   8 397.397 124.126   1
  -4  -4   7 256.933 297.164   1
  -4  -4   6 474.645 350.572   1
  -4  -4   5 749.510 381.664   1
   4  -4   3 1549.45 382.003   1
  -4  -5   8-179.258 391.343   1
  -4  -5   7 911.294 509.121   1
  -4  -5   6 91.5086 171.720   1
   4  -5   4 655.574 190.955   1
   5   0  -6 6545.61 1463.28   1
  -5   0   5-151.659 274.799   1
   5   0  -5-115.910 246.091   1
  -5   0   4 5849.73 1380.64   1
   5   0  -4 6666.11 1210.03   1
   5   0  -3 57.6821 59.8533   1
  -5   0   3-195.962 351.034   1
   5   0  -2 3718.94 753.500   1
  -5   0   2 2678.07 759.259   1
   5   0  -1-177.398 211.341   1
  -5   0   1-29.6524 100.664   1
  -5   0   0 704.448 293.608   1
   5   0   0 1234.32 366.128   1
  -5   0  -1-79.1921 92.8393   1
   5   1  -8-823.832 519.638   1
   5   1  -7 601.833 365.748   1
   5   1  -6 1142.09 532.401   1
  -5  -1   6 427.891 385.180   1
  -5  -1   5 454.956 361.772   1
   5   1  -5 1218.13 575.411   1
   5   1  -4 525.325 340.172   1
   5  -1  -4 675.906 479.976   1
  -5   1   4 195.101 198.182   1
  -5  -1   4 495.413 435.692   1
  -5   1   3 1634.55 651.442   1
  -5  -1   3 1307.00 561.737   1
   5  -1  -3 1415.01 579.290   1
   5   1  -3 2466.75 629.376   1
   5  -1  -2 9912.28 1486.33   1
   5   1  -2 13091.6 1382.19   1
  -5  -1   2 11611.9 1541.58   1
  -5   1   2 9221.20 1522.22   1
  -5  -1   1 1169.38 406.298   1
   5  -1  -1 430.094 218.690   1
  -5   1   1 491.048 242.104   1
   5   1  -1 1374.41 400.843   1
  -5   1   0 969.481 370.212   1
   5  -1   0 1471.36 411.331   1
   5  -1   1 8234.90 851.559   1
  -5   1  -1 8690.76 1046.64   1
  -5   1  -2 12063.8 1031.98   1
  -5   1  -3 3128.71 474.733   1
   5   2  -8 551.115 314.935   1
  -5  -2   7 810.830 603.724   1
   5   2  -7 429.275 364.972   1
  -5  -2   6 170.443 197.490   1
   5   2  -6 352.308 310.976   1
  -5  -2   5 522.527 397.592   1
   5   2  -5 922.825 452.901   1
   5   2  -4 1485.99 523.456   1
  -5  -2   4 403.099 341.147   1
  -5  -2   3 301.547 237.183   1
   5   2  -3 636.290 324.971   1
  -5   2   2 41.4393 178.562   1
  -5  -2   2 293.368 264.656   1
   5  -2  -2 146.059 185.272   1
   5   2  -2 41.5106 52.7275   1
  -5   2   1-139.802 195.458   1
   5  -2  -1 279.774 273.919   1
  -5   2   0 420.710 307.364   1
   5  -2   0 266.669 155.900   1
   5  -2   1-47.5274 110.531   1
  -5   2  -1-8.26949 140.366   1
  -5   2  -2 302.442 132.549   1
   5  -2   2 43.3573 68.5565   1
  -5   2  -3 1506.67 372.456   1
  -5   2  -4 1162.52 278.609   1
  -5   2  -5 388.217 130.210   1
   5   3  -9 717.680 432.295   1
  -5  -3   8 3172.89 1408.95   1
   5   3  -8 8.70256 253.605   1
  -5  -3   7-293.355 348.991   1
   5   3  -7 81.0223 89.9200   1
  -5  -3   6 535.260 522.405   1
   5   3  -6 621.582 340.514   1
   5   3  -5 1318.49 541.742   1
  -5  -3   5 1557.56 718.865   1
  -5  -3   4 5113.98 1101.96   1
   5   3  -4 5687.37 1047.05   1
   5  -3   1 3767.34 797.279   1
   5  -3   2 4893.51 652.643   1
   5  -3   3 1602.55 267.373   1
   5   4  -9 313.391 336.634   1
  -5  -4   9-357.557 271.404   1
   5   4  -8 29.6424 113.766   1
  -5  -4   8 564.089 403.509   1
  -5  -4   7-156.150 308.807   1
  -5  -4   6-103.967 282.711   1
  -5  -4   5 89.7738 207.883   1
   5  -4   2 851.248 559.544   1
   5  -4   3-101.591 95.7796   1
  -5  -5   8-446.241 519.587   1
  -5  -5   7 963.720 627.031   1
   5  -5   3 19.0740 113.121   1
   5  -5   4 318.975 132.670   1
   6   0  -7 169.263 327.113   1
   6   0  -6 1533.74 709.404   1
  -6   0   6 345.597 317.463   1
  -6   0   5 77.5138 270.912   1
   6   0  -5 483.909 460.979   1
   6   0  -4 20438.9 2181.69   1
  -6   0   4 17724.6 2513.52   1
   6   0  -3-160.993 201.390   1
  -6   0   3-414.376 331.844   1
  -6   0   2 4941.59 1167.11   1
   6   0  -2 5239.59 964.522   1
   6   0  -1-170.016 220.794   1
  -6   0   1 9.77368 208.795   1
  -6   0   0 182138. 5425.86   1
   6   0   0 178072. 4767.59   1
  -6   0  -1 30.7041 85.8901   1
   6   1  -7-87.6201 216.329   1
  -6  -1   7 167.791 213.606   1
   6   1  -6 41.3063 110.667   1
  -6  -1   6-525.044 434.948   1
   6  -1  -5-392.058 406.568   1
  -6  -1   5-218.475 268.975   1
   6   1  -5 41.2411 116.974   1
  -6  -1   4 1055.23 748.404   1
  -6   1   4 669.526 416.772   1
   6   1  -4 699.561 376.541   1
   6  -1  -4 1154.97 611.151   1
  -6   1   3 842.222 561.593   1
   6  -1  -3 939.572 484.787   1
   6   1  -3 1475.88 535.014   1
  -6  -1   3 508.948 419.993   1
   6  -1  -2 578.116 391.164   1
  -6  -1   2 2.08045 220.193   1
   6   1  -2 668.108 373.571   1
  -6   1   2 342.292 235.897   1
   6  -1  -1 4.51954 105.186   1
  -6  -1   1-61.2930 138.616   1
  -6   1   1 81.8731 240.705   1
   6   1  -1 90.4084 143.147   1
   6  -1   0 3920.99 727.359   1
  -6   1   0 3974.03 902.447   1
   6  -1   1-11.0210 38.1792   1
  -6   1  -1-45.3288 85.6779   1
  -6   1  -2 359.024 252.417   1
  -6   1  -3 613.858 263.778   1
   6   2  -7 1198.31 635.766   1
  -6  -2   7 1253.68 749.768   1
   6   2  -6 49.1184 1413.41   1
  -6  -2   6 712.472 491.658   1
  -6  -2   5 336.641 206.096   1
   6   2  -5 1556.38 622.792   1
  -6  -2   4 400.826 414.524   1
   6   2  -4 1057.73 501.712   1
  -6   2   3 78.6196 333.109   1
   6   2  -3 21500.5 2012.95   1
  -6  -2   3 18627.4 2228.89   1
   6  -2  -3 6172.89 1503.06   1
   6   2  -2 11717.9 1468.94   1
  -6  -2   2 13267.4 1631.87   1
   6  -2  -2 10197.1 1697.76   1
  -6   2   2 9979.49 1781.84   1
   6  -2  -1 4155.17 1003.19   1
  -6   2   1 3623.07 982.959   1
   6  -2   0 254.955 281.958   1
  -6   2   0-148.025 283.753   1
  -6   2  -1 1496.86 506.384   1
   6  -2   1 1768.95 413.862   1
   6  -2   2 11913.6 1048.67   1
  -6   2  -2 10562.1 1280.24   1
  -6   2  -3 35847.9 2144.84   1
  -6   2  -4 560.935 249.344   1
  -6   2  -5 1768.41 339.187   1
  -6   2  -6-53.9419 116.375   1
   6   3  -7 799.682 398.982   1
  -6  -3   7 896.438 671.220   1
  -6  -3   6 132.414 288.333   1
   6   3  -6 761.333 431.613   1
   6   3  -5 2191.66 704.080   1
  -6  -3   5 1934.07 842.224   1
  -6  -3   4 2147.93 754.142   1
   6   3  -4 1632.74 576.828   1
   6  -3  -1-54.8184 170.229   1
   6  -3   0 9.24083 130.406   1
   6  -3   1 5878.10 933.898   1
  -6   3  -1 4738.18 996.030   1
  -6   3  -2 7793.71 1160.09   1
   6  -3   2 9220.16 905.638   1
   6  -3   3 3682.40 507.209   1
  -6   3  -3 2399.41 509.815   1
  -6  -4   7-416.312 486.535   1
  -6  -4   6 9765.00 2015.69   1
  -6  -4   5 273.881 299.027   1
   6  -4   1 23.4568 51.9763   1
   6  -4   2 8236.84 1092.60   1
   6  -4   3 215.238 72.0732   1
   6  -5   3 1433.30 400.102   1
   6  -5   4 168.517 131.953   1
   6  -6   4-99.9002 96.8096   1
  -7   0   6 951.974 775.497   1
   7   0  -6 796.030 511.057   1
   7   0  -5 90.5256 210.041   1
  -7   0   5-356.994 331.878   1
   7   0  -4 3470.10 879.977   1
  -7   0   4 1943.20 919.819   1
   7   0  -3-94.8751 152.921   1
  -7   0   3 19.8138 298.927   1
  -7   0   2 32.0518 135.989   1
   7   0  -2 3.67451 97.2269   1
  -7   0   1 55.2591 183.144   1
   7   0  -1 105.510 187.056   1
  -7   0   0 391.861 354.299   1
   7   0   0-1.45763 25.7124   1
  -7   0  -1-246.284 281.791   1
  -7  -1   6 454.134 535.871   1
   7   1  -6 1393.41 601.093   1
   7  -1  -5 371.252 475.556   1
  -7   1   5-331.332 536.866   1
  -7   1   4 379.210 323.502   1
  -7  -1   4-141.794 274.605   1
   7   1  -4-705.418 401.604   1
   7  -1  -4-105.724 294.779   1
  -7   1   3 86.3617 47.8408   1
   7  -1  -3 895.330 499.638   1
   7   1  -3 497.414 327.794   1
  -7  -1   3 317.064 351.939   1
   7   1  -2 10729.0 1457.88   1
   7  -1  -2 10378.7 1525.09   1
  -7  -1   2 9801.21 1707.80   1
  -7   1   2 9247.27 1718.30   1
   7  -1  -1 186.756 192.880   1
  -7  -1   1 214.289 229.288   1
  -7   1   1 421.821 394.018   1
   7   1  -1 601.961 374.526   1
   7  -1   0 2658.41 638.723   1
  -7   1   0 2617.46 832.583   1
   7  -1   1 2001.02 525.116   1
  -7   1  -1 1718.26 564.767   1
  -7   1  -2 7243.96 1101.43   1
  -7   1  -3 2383.03 554.750   1
   7   2  -6 130.115 240.958   1
  -7  -2   6 55.9994 263.224   1
  -7  -2   5 187.164 464.188   1
   7   2  -5 213.180 242.136   1
   7   2  -4 37.8327 140.367   1
  -7  -2   4-3.27731 218.871   1
  -7   2   3 736.120 521.971   1
  -7  -2   3 515.282 336.014   1
   7   2  -3 270.903 226.484   1
   7  -2  -3 191.528 325.983   1
  -7   2   2 446.018 464.541   1
  -7  -2   2 15.2436 145.431   1
   7   2  -2 1.90075 82.1291   1
   7  -2  -2 352.122 334.569   1
  -7   2   1 123.412 315.108   1
   7  -2  -1-37.3915 132.948   1
   7  -2   0 446.004 272.367   1
  -7   2   0 352.855 387.396   1
  -7   2  -1 64.2330 211.024   1
   7  -2   1 178.643 179.027   1
  -7   2  -2 441.767 450.223   1
   7  -2   2 126.293 147.857   1
  -7   2  -3-16.5329 40.4987   1
  -7   2  -4 3552.01 660.723   1
  -7   2  -5 983.762 269.513   1
  -7  -3   6-203.620 427.780   1
   7   3  -6 2.57940 189.433   1
   7   3  -5-2.42750 95.7504   1
  -7  -3   5 79.2091 183.340   1
  -7  -3   4 3701.69 1122.73   1
   7   3  -4 1219.27 724.500   1
   7  -3  -2 33.6599 204.010   1
  -7   3   1 47.3963 188.346   1
   7  -3  -1 1793.35 729.316   1
  -7   3   0 10983.6 1812.46   1
  -7   3  -1 8048.16 1413.53   1
   7  -3   1 8954.50 1167.51   1
   7  -3   2 3705.30 648.668   1
  -7   3  -2 3090.16 809.928   1
   7  -3   3 5776.85 719.382   1
  -7   3  -3 4029.93 754.740   1
  -7   3  -4 4238.55 731.956   1
  -7  -4   6 253.214 445.747   1
   7  -4   0 2.45617 143.698   1
   7  -4   1 53.9541 118.330   1
   7  -4   2 87.5729 86.4144   1
   7  -4   3 284.303 186.952   1
   7  -5   2-347.093 281.782   1
   7  -6   4-219.656 158.892   1
   8   0  -5 69.7783 284.013   1
  -8   0   5-213.646 317.381   1
  -8   0   4 689.430 512.833   1
   8   0  -4 618.027 513.495   1
  -8   0   3-37.8558 94.4373   1
   8   0  -3 256.126 248.710   1
  -8   0   2 2964.90 1037.29   1
   8   0  -2 3928.69 965.871   1
   8   0  -1 83.0990 53.1941   1
  -8   0   1-21.3988 127.775   1
  -8   0   0 814.360 474.026   1
   8   0   0 521.766 378.583   1
  -8   0  -1-116.104 204.907   1
  -8   1   5 2240.25 1152.06   1
   8  -1  -5 1643.08 824.551   1
  -8  -1   5 1904.87 1053.83   1
   8   1  -5 1492.92 743.253   1
   8  -1  -4 26.2123 223.942   1
  -8  -1   4 58.2204 119.792   1
   8   1  -4 137.782 333.370   1
  -8   1   4 268.714 2386.71   1
  -8   1   3 941.241 575.918   1
   8  -1  -3 1466.38 698.973   1
   8   1  -3 1329.84 585.063   1
  -8  -1   3 89.3969 173.843   1
   8  -1  -2-115.963 73.9050   1
  -8  -1   2 36.3327 311.424   1
   8   1  -2 102.418 240.836   1
  -8   1   2 356.643 500.049   1
  -8  -1   1 113.512 161.564   1
  -8   1   1-185.665 325.992   1
   8   1  -1 287.380 267.863   1
   8  -1  -1 87.5535 155.075   1
  -8   1   0-32.6183 203.429   1
   8  -1   0-240.977 293.476   1
   8  -1   1 1.50774 104.145   1
  -8   1  -1 373.951 374.419   1
  -8   1  -2 175.131 184.848   1
  -8   1  -3 571.205 335.838   1
  -8  -2   5 1191.40 868.884   1
   8   2  -5 1807.34 758.397   1
   8  -2  -4-199.564 343.341   1
  -8   2   4 247.234 452.651   1
   8   2  -4 10.0263 122.427   1
   8  -2  -3 1401.00 669.831   1
  -8  -2   3 1124.07 676.017   1
   8   2  -3 3082.75 885.347   1
  -8   2   3 1525.43 768.564   1
   8  -2  -2-2.40284 174.762   1
  -8   2   2 602.723 575.367   1
  -8   2   1 4819.20 1255.77   1
   8  -2  -1 4839.03 1045.92   1
  -8   2   0-2.75900 243.342   1
   8  -2   0 652.088 381.699   1
   8  -2   1 8731.04 1160.49   1
  -8   2  -1 8440.02 1502.99   1
  -8   2  -2 413.525 312.053   1
   8  -2   2-38.9238 81.4557   1
  -8   2  -3 5210.97 1047.58   1
  -8   2  -4 598.658 213.328   1
  -8   2  -5 3542.58 653.385   1
   8   3  -5 141.495 288.152   1
  -8  -3   5-57.6089 261.716   1
  -8  -3   4-639.558 531.521   1
   8  -3  -2-242.550 279.675   1
  -8   3   2 125.445 353.903   1
  -8   3   1-276.863 402.199   1
   8  -3  -1 164.093 210.451   1
   8  -3   0 235.641 196.710   1
  -8   3   0-220.945 284.834   1
  -8   3  -1 119.489 258.094   1
   8  -3   1 384.620 183.921   1
  -8   3  -2-42.2253 200.557   1
   8  -3   2 165.236 200.766   1
  -8   3  -3 222.295 147.197   1
  -8   3  -4 2131.27 556.695   1
   8  -4   0 5813.50 1376.17   1
   8  -4   1 1338.85 554.065   1
   8  -4   2 2301.30 568.515   1
   8  -4   3 688.004 284.862   1
   8  -5   2 380.714 291.742   1
   8  -5   3-179.710 165.658   1
   8  -6   3-143.924 87.3794   1
  -9   0   4 754.958 739.797   1
   9   0  -4 1083.70 619.964   1
  -9   0   3 90.5944 325.836   1
   9   0  -3-678.831 556.257   1
  -9   0   2-170.875 410.439   1
   9   0  -2 192.661 155.019   1
   9   0  -1 227.125 247.922   1
  -9   0   1-41.8527 227.162   1
   9   0   0 361.898 309.491   1
  -9   0   0 268.277 253.395   1
  -9   0  -1 131.089 278.059   1
   9  -1  -3 3764.90 1064.54   1
  -9  -1   3 1331.93 834.755   1
  -9   1   3 2022.22 834.341   1
   9   1  -3 3021.11 849.909   1
   9   1  -2 174.850 257.004   1
  -9  -1   2-250.241 191.219   1
   9  -1  -2-2.41059 162.849   1
  -9   1   1 6654.58 1649.46   1
  -9  -1   1 7000.31 1528.04   1
   9  -1  -1 7929.15 1408.91   1
  -9   1   0 4736.70 1295.88   1
   9  -1   0 5139.68 1056.94   1
   9  -1   1 11111.8 1452.31   1
  -9   1  -1 9488.39 1695.58   1
  -9   1  -2-75.2196 216.527   1
  -9   1  -3 5435.39 1099.13   1
   9  -2  -3-78.7675 195.137   1
  -9   2   3 570.284 591.020   1
   9   2  -3 2.69420 27.4388   1
  -9  -2   3 38.4584 484.476   1
   9  -2  -2 425.724 355.879   1
  -9   2   2 220.339 356.166   1
   9  -2  -1 343.259 386.064   1
  -9   2   1 240.585 418.660   1
  -9   2   0 1322.03 763.168   1
   9  -2   0 1244.17 535.756   1
  -9   2  -1-96.7113 91.6080   1
   9  -2   1-177.415 239.073   1
  -9   2  -2 73.5193 233.801   1
  -9   2  -3 680.196 475.253   1
  -9   2  -4 3374.05 885.504   1
   9  -3  -3 325.772 422.046   1
  -9   3   2 1188.84 859.913   1
   9  -3  -2 1931.54 873.660   1
   9  -3  -1 469.442 467.124   1
  -9   3   1 758.653 754.919   1
   9  -3   0 12.2096 175.853   1
  -9   3   0-291.232 367.311   1
  -9   3  -1 521.539 484.700   1
   9  -3   1 277.476 242.717   1
  -9   3  -2 2516.72 853.363   1
   9  -3   2 3821.81 757.922   1
  -9   3  -3 1050.12 525.478   1
  -9   3  -4 79.7095 61.1912   1
   9  -4  -1 182.184 309.560   1
   9  -4   0 164.057 118.628   1
   9  -4   1 98.2151 149.340   1
   9  -4   2 8909.37 1200.15   1
   9  -4   3 524.327 328.156   1
   9  -5   1 83.5226 21.8110   1
   9  -5   2 5419.66 997.399   1
   9  -5   3 1728.29 423.031   1
 -10   0   2 2364.32 1105.65   1
  10   0  -2 1755.12 645.847   1
  10   0  -1-272.467 348.198   1
 -10   0   1 2356.43 1233.24   1
 -10   0   0-190.473 364.644   1
  10   1  -2-366.655 315.157   1
 -10   1   2 573.713 621.039   1
 -10  -1   2-392.514 587.416   1
  10  -1  -2 136.822 236.621   1
 -10   1   1 279.501 442.404   1
 -10  -1   1-655.313 591.876   1
  10  -1  -1-188.262 251.052   1
 -10   1   0-247.432 293.091   1
  10  -1   0 52.6744 149.944   1
 -10   1  -1 454.816 534.223   1
 -10   1  -2 345.794 194.580   1
 -10   2   2 1035.74 813.641   1
  10  -2  -2 41.7955 240.791   1
 -10   2   1 3694.08 1314.49   1
  10  -2  -1 4918.53 1184.18   1
  10  -2   0 38.6887 162.341   1
 -10   2   0 7.25760 97.7795   1
 -10   2  -1 5332.33 1397.20   1
  10  -2   1 6460.54 1190.78   1
 -10   2  -2 486.743 585.184   1
 -10   2  -3 3520.33 981.950   1
 -10   2  -4-135.215 232.330   1
  10  -3  -2 272.446 383.268   1
 -10   3   2-1128.54 937.265   1
  10  -3  -1-147.305 186.107   1
 -10   3   1 2397.96 1518.05   1
 -10   3   0-54.3026 283.198   1
  10  -3   0-107.106 180.376   1
 -10   3  -1 335.445 419.389   1
  10  -3   1-1.91237 213.352   1
 -10   3  -2 421.945 324.627   1
  10  -3   2 204.440 179.478   1
 -10   3  -3-169.869 143.918   1
 -10   3  -4 249.610 426.638   1
  10  -4  -1 174.343 367.036   1
  10  -4   0 4971.36 1231.95   1
  10  -4   1 234.909 275.933   1
  10  -4   2 4103.40 844.988   1
  10  -4   3 592.679 346.762   1
  10  -5   1-377.921 315.419   1
  10  -5   2 146.015 91.3569   1
  10  -5   3 230.350 281.418   1
 -11   0   0 480.230 626.029   1
 -11   1   1-560.228 591.563   1
  11  -1  -1 546.546 354.012   1
 -11   1   0 771.214 705.244   1
  11  -1   0 735.650 463.978   1
 -11   1  -1 1767.17 968.780   1
 -11   1  -2 142.924 340.809   1
 -11   2   1 140.922 384.572   1
  11  -2  -1-522.923 380.384   1
  11  -2   0 136.682 225.144   1
 -11   2   0 263.430 425.441   1
  11  -2   1-205.857 338.006   1
 -11   2  -1 171.094 376.904   1
 -11   2  -2 757.124 643.753   1
 -11   2  -3 282.460 368.510   1
 -11   3   0 1987.69 1086.98   1
  11  -3   0 2316.53 830.394   1
 -11   3  -1 581.955 609.092   1
  11  -3   1 1153.69 541.711   1
 -11   3  -2 462.032 288.886   1
  11  -3   2 300.400 238.280   1
 -11   3  -3 778.477 606.661   1
  11  -4   0-288.375 273.771   1
  11  -4   1-337.373 241.870   1
 -11   4  -1 36.8431 150.090   1
 -11   4  -2 314.845 366.617   1
  11  -4   2-57.1560 70.2586   1
  11  -5   1 461.513 339.752   1
  11  -5   2-295.806 288.940   1
 -12   1  -1 318.420 511.418   1
  12  -2   1-27.9617 218.140   1
 -12   2  -1 96.6533 487.973   1
 -12   2  -2 516.155 672.818   1
  12  -3   1-135.408 175.515   1
 -12   3  -1 499.263 604.594   1
 -12   3  -2 121.449 427.354   1
 -12   3  -3 714.819 647.152   1
 -12   4  -1-1236.35 958.452   1
  12  -4   1 108.726 319.890   1
 -12   4  -2-135.335 339.378   1
  12  -4   2 1265.44 549.876   1
  12  -5   1-638.262 469.116   1
  12  -5   2-125.432 124.380   1
   0   0   0    0.00    0.00   0
TITL slav_p12_s1 in P2(1)/c
REM P2(1)/c (#14 in standard setting)
CELL 0.41106   8.590112   8.483522   6.463502  90.0000  89.1306  90.0000
ZERR    4.00   0.001699   0.008237   0.002109   0.0000   0.0262   0.0000
LATT  1
SYMM -x, y+1/2,-z+1/2
SFAC O Al Si Sr
UNIT 32.00 8.00 8.00 4.00
TREF
HKLF 4
END
;
_shelx_hkl_checksum              39558
loop_
_space_group_symop_operation_xyz
'x, y, z'
'-x, y+1/2, -z+1/2'
'-x, -y, -z'
'x, -y-1/2, z-1/2'
loop_
_atom_site_label
_atom_site_type_symbol
_atom_site_fract_x
_atom_site_fract_y
_atom_site_fract_z
_atom_site_U_iso_or_equiv
_atom_site_adp_type
_atom_site_occupancy
_atom_site_site_symmetry_order
_atom_site_calc_flag
_atom_site_refinement_flags_posn
_atom_site_refinement_flags_adp
_atom_site_refinement_flags_occupancy
_atom_site_disorder_assembly
_atom_site_disorder_group
Sr1 Sr 0.2509(3) 0.3837(9) 0.2679(5) 0.055(3) Uani 1 1 d . . . . .
Si1 Si 0.5860(10) 0.537(3) 0.2204(18) 0.060(8) Uani 1 1 d . . . . .
Si2 Si 0.0773(11) 0.721(3) 0.4795(17) 0.046(8) Uani 1 1 d . . . . .
Al1 Al -0.0893(11) 0.520(3) 0.1890(17) 0.041(8) Uani 1 1 d . . . . .
Al2 Al 0.4069(12) 0.743(3) 0.4882(18) 0.057(10) Uani 1 1 d . . . . .
O1 O 0.739(3) 0.620(6) 0.106(6) 0.054(9) Uiso 1 1 d . . . . .
O2 O 0.056(3) 0.632(6) 0.726(5) 0.038(7) Uiso 1 1 d . . . . .
O3 O 0.085(2) 0.596(5) 0.068(4) 0.026(6) Uiso 1 1 d . . . . .
O4 O 0.422(2) 0.597(5) 0.115(4) 0.031(6) Uiso 1 1 d . . . . .
O5 O 0.589(3) 0.618(6) 0.440(5) 0.045(8) Uiso 1 1 d . . . . .
O6 O 0.229(3) 0.663(5) 0.429(4) 0.038(7) Uiso 1 1 d . . . . .
O7 O -0.085(2) 0.638(4) 0.426(3) 0.018(5) Uiso 1 1 d . . . . .
O8 O 0.585(3) 0.360(6) 0.245(4) 0.034(6) Uiso 1 1 d . . . . .
loop_
_atom_site_aniso_label
_atom_site_aniso_U_11
_atom_site_aniso_U_22
_atom_site_aniso_U_33
_atom_site_aniso_U_23
_atom_site_aniso_U_13
_atom_site_aniso_U_12
Sr1 0.037(2) 0.102(10) 0.026(2) 0.005(2) -0.0113(15) 0.0018(19)
Si1 0.025(5) 0.12(3) 0.035(7) -0.010(9) -0.013(4) -0.007(8)
Si2 0.037(5) 0.08(3) 0.026(6) -0.007(7) 0.000(5) 0.000(7)
Al1 0.033(5) 0.07(3) 0.020(5) 0.002(6) -0.019(4) -0.005(6)
Al2 0.031(6) 0.12(3) 0.023(6) 0.003(8) -0.006(5) -0.001(7)
loop_
_atom_type_symbol
_atom_type_description
_atom_type_scat_dispersion_real
_atom_type_scat_dispersion_imag
_atom_type_scat_source
O O 0.0017 0.0018 'International Tables Vol C Tables 4.2.6.8 and 6.1.1.4'
Al Al 0.0192 0.0163 'International Tables Vol C Tables 4.2.6.8 and 6.1.1.4'
Si Si 0.0265 0.0226 'International Tables Vol C Tables 4.2.6.8 and 6.1.1.4'
Sr Sr 0.2429 1.2951 'International Tables Vol C Tables 4.2.6.8 and 6.1.1.4'
loop_
_geom_angle_atom_site_label_1
_geom_angle_atom_site_label_2
_geom_angle_atom_site_label_3
_geom_angle
_geom_angle_site_symmetry_1
_geom_angle_site_symmetry_3
_geom_angle_publ_flag
O5 Sr1 O1 72.2(16) 3_666 2_645 ?
O5 Sr1 O1 142.1(9) 3_666 3_665 ?
O1 Sr1 O1 109.2(12) 2_645 3_665 ?
O5 Sr1 O7 71.8(8) 3_666 3_566 ?
O1 Sr1 O7 71.2(11) 2_645 3_566 ?
O1 Sr1 O7 145.7(9) 3_665 3_566 ?
O5 Sr1 O4 88.7(12) 3_666 . ?
O1 Sr1 O4 141.5(10) 2_645 . ?
O1 Sr1 O4 66.6(13) 3_665 . ?
O7 Sr1 O4 134.7(12) 3_566 . ?
O5 Sr1 O6 74.1(13) 3_666 . ?
O1 Sr1 O6 136.4(12) 2_645 . ?
O1 Sr1 O6 114.4(14) 3_665 . ?
O7 Sr1 O6 72.6(10) 3_566 . ?
O4 Sr1 O6 62.7(9) . . ?
O5 Sr1 O2 125.7(10) 3_666 3_566 ?
O1 Sr1 O2 89.5(13) 2_645 3_566 ?
O1 Sr1 O2 92.1(10) 3_665 3_566 ?
O7 Sr1 O2 53.9(8) 3_566 3_566 ?
O4 Sr1 O2 128.0(12) . 3_566 ?
O6 Sr1 O2 88.3(12) . 3_566 ?
O5 Sr1 O3 136.3(15) 3_666 . ?
O1 Sr1 O3 146.0(11) 2_645 . ?
O1 Sr1 O3 62.0(12) 3_665 . ?
O7 Sr1 O3 97.8(8) 3_566 . ?
O4 Sr1 O3 68.5(9) . . ?
O6 Sr1 O3 62.5(10) . . ?
O2 Sr1 O3 59.8(11) 3_566 . ?
O5 Sr1 O7 130.8(14) 3_666 2_545 ?
O1 Sr1 O7 58.6(11) 2_645 2_545 ?
O1 Sr1 O7 63.9(11) 3_665 2_545 ?
O7 Sr1 O7 90.8(7) 3_566 2_545 ?
O4 Sr1 O7 130.4(9) . 2_545 ?
O6 Sr1 O7 144.8(7) . 2_545 ?
O2 Sr1 O7 57.4(13) 3_566 2_545 ?
O3 Sr1 O7 90.5(11) . 2_545 ?
O5 Sr1 O8 56.4(8) 3_666 . ?
O1 Sr1 O8 84.8(12) 2_645 . ?
O1 Sr1 O8 85.7(9) 3_665 . ?
O7 Sr1 O8 127.6(8) 3_566 . ?
O4 Sr1 O8 57.1(11) . . ?
O6 Sr1 O8 98.8(11) . . ?
O2 Sr1 O8 172.8(16) 3_566 . ?
O3 Sr1 O8 124.4(10) . . ?
O7 Sr1 O8 115.7(10) 2_545 . ?
O5 Sr1 O5 94.8(11) 3_666 2_645 ?
O1 Sr1 O5 54.5(11) 2_645 2_645 ?
O1 Sr1 O5 61.8(12) 3_665 2_645 ?
O7 Sr1 O5 125.3(12) 3_566 2_645 ?
O4 Sr1 O5 95.9(11) . 2_645 ?
O6 Sr1 O5 155.5(9) . 2_645 ?
O2 Sr1 O5 115.4(14) 3_566 2_645 ?
O3 Sr1 O5 123.2(9) . 2_645 ?
O7 Sr1 O5 58.1(7) 2_545 2_645 ?
O8 Sr1 O5 57.6(11) . 2_645 ?
O5 Sr1 Si1 62.6(9) 3_666 . ?
O1 Sr1 Si1 112.4(8) 2_645 . ?
O1 Sr1 Si1 83.6(9) 3_665 . ?
O7 Sr1 Si1 129.0(6) 3_566 . ?
O4 Sr1 Si1 31.3(7) . . ?
O6 Sr1 Si1 74.1(7) . . ?
O2 Sr1 Si1 158.0(13) 3_566 . ?
O3 Sr1 Si1 99.6(7) . . ?
O7 Sr1 Si1 136.2(5) 2_545 . ?
O8 Sr1 Si1 28.4(9) . . ?
O5 Sr1 Si1 81.5(8) 2_645 . ?
O8 Si1 O5 110(2) . . ?
O8 Si1 O1 118(2) . . ?
O5 Si1 O1 101.2(19) . . ?
O8 Si1 O4 110(2) . . ?
O5 Si1 O4 105.1(17) . . ?
O1 Si1 O4 111(2) . . ?
O8 Si1 Al1 87.7(13) . 1_655 ?
O5 Si1 Al1 93.4(11) . 1_655 ?
O1 Si1 Al1 37.3(15) . 1_655 ?
O4 Si1 Al1 147.2(12) . 1_655 ?
O8 Si1 Al2 34.4(11) . 2_645 ?
O5 Si1 Al2 144(2) . 2_645 ?
O1 Si1 Al2 98.6(17) . 2_645 ?
O4 Si1 Al2 94.9(15) . 2_645 ?
Al1 Si1 Al2 84.6(7) 1_655 2_645 ?
O8 Si1 Al2 134.5(13) . 4_575 ?
O5 Si1 Al2 101.7(19) . 4_575 ?
O1 Si1 Al2 85.4(17) . 4_575 ?
O4 Si1 Al2 27.7(14) . 4_575 ?
Al1 Si1 Al2 122.7(8) 1_655 4_575 ?
Al2 Si1 Al2 109.3(7) 2_645 4_575 ?
O8 Si1 Al2 122.6(13) . . ?
O5 Si1 Al2 37.9(12) . . ?
O1 Si1 Al2 115(2) . . ?
O4 Si1 Al2 67.2(12) . . ?
Al1 Si1 Al2 126.6(8) 1_655 . ?
Al2 Si1 Al2 145.6(7) 2_645 . ?
Al2 Si1 Al2 68.5(5) 4_575 . ?
O8 Si1 Sr1 65.0(11) . . ?
O5 Si1 Sr1 96.8(11) . . ?
O1 Si1 Sr1 158.7(14) . . ?
O4 Si1 Sr1 52.3(13) . . ?
Al1 Si1 Sr1 152.7(10) 1_655 . ?
Al2 Si1 Sr1 72.4(5) 2_645 . ?
Al2 Si1 Sr1 79.8(4) 4_575 . ?
Al2 Si1 Sr1 73.5(4) . . ?
O8 Si1 Sr1 153.7(12) . 2_655 ?
O5 Si1 Sr1 64.7(17) . 2_655 ?
O1 Si1 Sr1 44.7(17) . 2_655 ?
O4 Si1 Sr1 95.9(17) . 2_655 ?
Al1 Si1 Sr1 67.6(6) 1_655 2_655 ?
Al2 Si1 Sr1 143.0(4) 2_645 2_655 ?
Al2 Si1 Sr1 70.1(7) 4_575 2_655 ?
Al2 Si1 Sr1 70.4(6) . 2_655 ?
Sr1 Si1 Sr1 139.4(6) . 2_655 ?
O8 Si1 Sr1 106.6(12) . 3_665 ?
O5 Si1 Sr1 135.7(17) . 3_665 ?
O1 Si1 Sr1 37.9(14) . 3_665 ?
O4 Si1 Sr1 84.3(9) . 3_665 ?
Al1 Si1 Sr1 63.8(3) 1_655 3_665 ?
Al2 Si1 Sr1 74.6(5) 2_645 3_665 ?
Al2 Si1 Sr1 67.2(4) 4_575 3_665 ?
Al2 Si1 Sr1 128.8(9) . 3_665 ?
Sr1 Si1 Sr1 121.1(4) . 3_665 ?
Sr1 Si1 Sr1 71.4(4) 2_655 3_665 ?
O8 Si1 Sr1 95.2(12) . 3_666 ?
O5 Si1 Sr1 25.8(13) . 3_666 ?
O1 Si1 Sr1 90.7(14) . 3_666 ?
O4 Si1 Sr1 130.9(12) . 3_666 ?
Al1 Si1 Sr1 71.4(3) 1_655 3_666 ?
Al2 Si1 Sr1 125.7(7) 2_645 3_666 ?
Al2 Si1 Sr1 124.8(8) 4_575 3_666 ?
Al2 Si1 Sr1 63.7(4) . 3_666 ?
Sr1 Si1 Sr1 110.3(3) . 3_666 ?
Sr1 Si1 Sr1 69.2(3) 2_655 3_666 ?
Sr1 Si1 Sr1 128.6(4) 3_665 3_666 ?
O6 Si2 O7 126(2) . . ?
O6 Si2 O3 111(2) . 4_576 ?
O7 Si2 O3 121.8(17) . 4_576 ?
O6 Si2 O2 98.1(18) . . ?
O7 Si2 O2 85.8(18) . . ?
O3 Si2 O2 95(2) 4_576 . ?
O6 Si2 O2 96.9(17) . 4_575 ?
O7 Si2 O2 90.4(16) . 4_575 ?
O3 Si2 O2 73.2(17) 4_576 4_575 ?
O2 Si2 O2 163.8(16) . 4_575 ?
O6 Si2 Al1 101.5(18) . 2 ?
O7 Si2 Al1 110.3(15) . 2 ?
O3 Si2 Al1 43.3(12) 4_576 2 ?
O2 Si2 Al1 139(2) . 2 ?
O2 Si2 Al1 30.4(12) 4_575 2 ?
O6 Si2 Al2 28.3(17) . . ?
O7 Si2 Al2 154.6(16) . . ?
O3 Si2 Al2 83.4(10) 4_576 . ?
O2 Si2 Al2 95.8(11) . . ?
O2 Si2 Al2 94.4(10) 4_575 . ?
Al1 Si2 Al2 85.1(7) 2 . ?
O6 Si2 Sr1 141(2) . 3_566 ?
O7 Si2 Sr1 42.5(8) . 3_566 ?
O3 Si2 Sr1 96.8(8) 4_576 3_566 ?
O2 Si2 Sr1 51.2(9) . 3_566 ?
O2 Si2 Sr1 117.4(9) 4_575 3_566 ?
Al1 Si2 Sr1 117.4(6) 2 3_566 ?
Al2 Si2 Sr1 147.0(7) . 3_566 ?
O6 Si2 Sr1 40.9(18) . . ?
O7 Si2 Sr1 85.6(14) . . ?
O3 Si2 Sr1 152.0(9) 4_576 . ?
O2 Si2 Sr1 92.3(19) . . ?
O2 Si2 Sr1 103.1(11) 4_575 . ?
Al1 Si2 Sr1 125.8(4) 2 . ?
Al2 Si2 Sr1 69.1(6) . . ?
Sr1 Si2 Sr1 108.9(7) 3_566 . ?
O6 Si2 Sr1 139.7(12) . 2 ?
O7 Si2 Sr1 51.3(13) . 2 ?
O3 Si2 Sr1 80.0(11) 4_576 2 ?
O2 Si2 Sr1 120.0(10) . 2 ?
O2 Si2 Sr1 47.7(8) 4_575 2 ?
Al1 Si2 Sr1 59.3(4) 2 2 ?
Al2 Si2 Sr1 141.6(8) . 2 ?
Sr1 Si2 Sr1 69.8(2) 3_566 2 ?
Sr1 Si2 Sr1 118.7(4) . 2 ?
O2 Al1 O1 135(2) 3_566 1_455 ?
O2 Al1 O3 108.6(17) 3_566 . ?
O1 Al1 O3 112.8(19) 1_455 . ?
O2 Al1 O7 99(2) 3_566 . ?
O1 Al1 O7 91.1(17) 1_455 . ?
O3 Al1 O7 98.3(14) . . ?
O2 Al1 O3 82(3) 3_566 3_565 ?
O1 Al1 O3 89.4(16) 1_455 3_565 ?
O3 Al1 O3 78.7(17) . 3_565 ?
O7 Al1 O3 176.9(16) . 3_565 ?
O2 Al1 Si2 47.0(19) 3_566 2_545 ?
O1 Al1 Si2 110.0(17) 1_455 2_545 ?
O3 Al1 Si2 97.6(14) . 2_545 ?
O7 Al1 Si2 146.0(13) . 2_545 ?
O3 Al1 Si2 36.1(13) 3_565 2_545 ?
O2 Al1 Si1 103.0(16) 3_566 1_455 ?
O1 Al1 Si1 34.0(14) 1_455 1_455 ?
O3 Al1 Si1 146.7(14) . 1_455 ?
O7 Al1 Si1 86.7(8) . 1_455 ?
O3 Al1 Si1 95.4(8) 3_565 1_455 ?
Si2 Al1 Si1 96.1(7) 2_545 1_455 ?
O2 Al1 Al1 96.4(18) 3_566 3_565 ?
O1 Al1 Al1 103.5(13) 1_455 3_565 ?
O3 Al1 Al1 41.0(11) . 3_565 ?
O7 Al1 Al1 139.3(12) . 3_565 ?
O3 Al1 Al1 37.7(9) 3_565 3_565 ?
Si2 Al1 Al1 62.7(8) 2_545 3_565 ?
Si1 Al1 Al1 125.7(6) 1_455 3_565 ?
O2 Al1 Sr1 54.7(13) 3_566 . ?
O1 Al1 Sr1 168.7(14) 1_455 . ?
O3 Al1 Sr1 56.1(11) . . ?
O7 Al1 Sr1 92.0(8) . . ?
O3 Al1 Sr1 86.9(10) 3_565 . ?
Si2 Al1 Sr1 72.6(5) 2_545 . ?
Si1 Al1 Sr1 157.1(9) 1_455 . ?
Al1 Al1 Sr1 67.4(5) 3_565 . ?
O2 Al1 Sr1 130(2) 3_566 3_565 ?
O1 Al1 Sr1 43.5(12) 1_455 3_565 ?
O3 Al1 Sr1 83.3(9) . 3_565 ?
O7 Al1 Sr1 127.9(13) . 3_565 ?
O3 Al1 Sr1 51.3(11) 3_565 3_565 ?
Si2 Al1 Sr1 83.7(4) 2_545 3_565 ?
Si1 Al1 Sr1 68.2(4) 1_455 3_565 ?
Al1 Al1 Sr1 60.6(4) 3_565 3_565 ?
Sr1 Al1 Sr1 128.0(3) . 3_565 ?
O2 Al1 Sr1 150.6(15) 3_566 2 ?
O1 Al1 Sr1 42.0(16) 1_455 2 ?
O3 Al1 Sr1 92.7(15) . 2 ?
O7 Al1 Sr1 56.6(10) . 2 ?
O3 Al1 Sr1 122.5(13) 3_565 2 ?
Si2 Al1 Sr1 151.7(4) 2_545 2 ?
Si1 Al1 Sr1 62.6(6) 1_455 2 ?
Al1 Al1 Sr1 112.9(11) 3_565 2 ?
Sr1 Al1 Sr1 133.8(6) . 2 ?
Sr1 Al1 Sr1 71.3(4) 3_565 2 ?
O2 Al1 Sr1 85.0(15) 3_566 3_566 ?
O1 Al1 Sr1 83.3(13) 1_455 3_566 ?
O3 Al1 Sr1 127.5(13) . 3_566 ?
O7 Al1 Sr1 29.5(8) . 3_566 ?
O3 Al1 Sr1 153.5(12) 3_565 3_566 ?
Si2 Al1 Sr1 124.4(7) 2_545 3_566 ?
Si1 Al1 Sr1 65.0(3) 1_455 3_566 ?
Al1 Al1 Sr1 168.2(8) 3_565 3_566 ?
Sr1 Al1 Sr1 104.5(3) . 3_566 ?
Sr1 Al1 Sr1 126.8(5) 3_565 3_566 ?
Sr1 Al1 Sr1 65.8(3) 2 3_566 ?
O4 Al2 O6 121.9(17) 4_576 . ?
O4 Al2 O8 88(2) 4_576 2_655 ?
O6 Al2 O8 93.2(15) . 2_655 ?
O4 Al2 O5 119.1(16) 4_576 . ?
O6 Al2 O5 118(2) . . ?
O8 Al2 O5 98.4(16) 2_655 . ?
O4 Al2 O8 85.6(18) 4_576 3_666 ?
O6 Al2 O8 93.5(17) . 3_666 ?
O8 Al2 O8 172.3(17) 2_655 3_666 ?
O5 Al2 O8 81.7(16) . 3_666 ?
O4 Al2 Si1 59.5(16) 4_576 2_655 ?
O6 Al2 Si1 104.8(14) . 2_655 ?
O8 Al2 Si1 28.3(13) 2_655 2_655 ?
O5 Al2 Si1 113.5(14) . 2_655 ?
O8 Al2 Si1 145.1(16) 3_666 2_655 ?
O4 Al2 Si2 98.9(11) 4_576 . ?
O6 Al2 Si2 23.0(13) . . ?
O8 Al2 Si2 92.6(11) 2_655 . ?
O5 Al2 Si2 140.6(19) . . ?
O8 Al2 Si2 92.1(10) 3_666 . ?
Si1 Al2 Si2 93.7(8) 2_655 . ?
O4 Al2 Si1 29.0(10) 4_576 4_576 ?
O6 Al2 Si1 149.4(14) . 4_576 ?
O8 Al2 Si1 93.9(15) 2_655 4_576 ?
O5 Al2 Si1 90.2(13) . 4_576 ?
O8 Al2 Si1 78.4(13) 3_666 4_576 ?
Si1 Al2 Si1 70.7(7) 2_655 4_576 ?
Si2 Al2 Si1 126.8(8) . 4_576 ?
O4 Al2 Si1 141.2(11) 4_576 . ?
O6 Al2 Si1 95.4(14) . . ?
O8 Al2 Si1 79.6(13) 2_655 . ?
O5 Al2 Si1 30.5(10) . . ?
O8 Al2 Si1 103.6(14) 3_666 . ?
Si1 Al2 Si1 103.9(4) 2_655 . ?
Si2 Al2 Si1 118.0(8) . . ?
Si1 Al2 Si1 115.1(6) 4_576 . ?
O4 Al2 Sr1 87.5(12) 4_576 3_666 ?
O6 Al2 Sr1 136.7(17) . 3_666 ?
O8 Al2 Sr1 121.3(10) 2_655 3_666 ?
O5 Al2 Sr1 38.6(10) . 3_666 ?
O8 Al2 Sr1 54.7(8) 3_666 3_666 ?
Si1 Al2 Sr1 118.0(5) 2_655 3_666 ?
Si2 Al2 Sr1 145.8(8) . 3_666 ?
Si1 Al2 Sr1 60.3(4) 4_576 3_666 ?
Si1 Al2 Sr1 69.1(4) . 3_666 ?
O4 Al2 Sr1 83.2(11) 4_576 2_655 ?
O6 Al2 Sr1 139.5(10) . 2_655 ?
O8 Al2 Sr1 53.6(9) 2_655 2_655 ?
O5 Al2 Sr1 56.0(14) . 2_655 ?
O8 Al2 Sr1 121.7(9) 3_666 2_655 ?
Si1 Al2 Sr1 58.2(4) 2_655 2_655 ?
Si2 Al2 Sr1 146.2(7) . 2_655 ?
Si1 Al2 Sr1 65.1(4) 4_576 2_655 ?
Si1 Al2 Sr1 59.7(4) . 2_655 ?
Sr1 Al2 Sr1 67.8(2) 3_666 2_655 ?
O4 Al2 Sr1 162.0(9) 4_576 . ?
O6 Al2 Sr1 41.1(14) . . ?
O8 Al2 Sr1 98.2(14) 2_655 . ?
O5 Al2 Sr1 77.0(15) . . ?
O8 Al2 Sr1 89.3(15) 3_666 . ?
Si1 Al2 Sr1 123.9(5) 2_655 . ?
Si2 Al2 Sr1 64.0(6) . . ?
Si1 Al2 Sr1 163.5(8) 4_576 . ?
Si1 Al2 Sr1 56.8(5) . . ?
Sr1 Al2 Sr1 103.5(6) 3_666 . ?
Sr1 Al2 Sr1 114.0(4) 2_655 . ?
Si1 O1 Al1 109(3) . 1_655 ?
Si1 O1 Sr1 106.2(19) . 2_655 ?
Al1 O1 Sr1 108(2) 1_655 2_655 ?
Si1 O1 Sr1 117.3(19) . 3_665 ?
Al1 O1 Sr1 105.9(15) 1_655 3_665 ?
Sr1 O1 Sr1 110.5(18) 2_655 3_665 ?
Al1 O2 Si2 135(3) 3_566 . ?
Al1 O2 Si2 103(2) 3_566 4_576 ?
Si2 O2 Si2 116(3) . 4_576 ?
Al1 O2 Sr1 99(2) 3_566 3_566 ?
Si2 O2 Sr1 97.2(13) . 3_566 ?
Si2 O2 Sr1 96.8(12) 4_576 3_566 ?
Si2 O3 Al1 116.6(17) 4_575 . ?
Si2 O3 Al1 100.6(16) 4_575 3_565 ?
Al1 O3 Al1 101.3(17) . 3_565 ?
Si2 O3 Sr1 146.3(15) 4_575 . ?
Al1 O3 Sr1 89.6(15) . . ?
Al1 O3 Sr1 94.0(17) 3_565 . ?
Al2 O4 Si1 123(2) 4_575 . ?
Al2 O4 Sr1 139.8(13) 4_575 . ?
Si1 O4 Sr1 96.4(17) . . ?
Si1 O5 Al2 111.6(17) . . ?
Si1 O5 Sr1 137(2) . 3_666 ?
Al2 O5 Sr1 111.0(16) . 3_666 ?
Si1 O5 Sr1 86.5(15) . 2_655 ?
Al2 O5 Sr1 92(2) . 2_655 ?
Sr1 O5 Sr1 95.5(12) 3_666 2_655 ?
Si2 O6 Al2 129(3) . . ?
Si2 O6 Sr1 118(2) . . ?
Al2 O6 Sr1 112.9(16) . . ?
Si2 O7 Al1 116.6(11) . . ?
Si2 O7 Sr1 111.0(12) . 3_566 ?
Al1 O7 Sr1 128.7(14) . 3_566 ?
Si2 O7 Sr1 102.4(18) . 2 ?
Al1 O7 Sr1 90.8(10) . 2 ?
Sr1 O7 Sr1 97.1(8) 3_566 2 ?
Si1 O8 Al2 117.4(19) . 2_645 ?
Si1 O8 Al2 123(2) . 3_666 ?
Al2 O8 Al2 120(3) 2_645 3_666 ?
Si1 O8 Sr1 86.5(13) . . ?
Al2 O8 Sr1 96.2(12) 2_645 . ?
Al2 O8 Sr1 91.9(10) 3_666 . ?
loop_
_geom_bond_atom_site_label_1
_geom_bond_atom_site_label_2
_geom_bond_distance
_geom_bond_site_symmetry_2
_geom_bond_publ_flag
Sr1 O5 2.36(3) 3_666 ?
Sr1 O1 2.38(5) 2_645 ?
Sr1 O1 2.42(4) 3_665 ?
Sr1 O7 2.427(18) 3_566 ?
Sr1 O4 2.52(4) . ?
Sr1 O6 2.59(5) . ?
Sr1 O2 2.64(3) 3_566 ?
Sr1 O3 2.65(3) . ?
Sr1 O7 2.83(3) 2_545 ?
Sr1 O8 2.88(2) . ?
Sr1 O5 2.95(4) 2_645 ?
Sr1 Si1 3.170(13) . ?
Si1 O8 1.51(5) . ?
Si1 O5 1.58(4) . ?
Si1 O1 1.65(4) . ?
Si1 O4 1.66(3) . ?
Si1 Al1 2.798(14) 1_655 ?
Si1 Al2 2.83(3) 2_645 ?
Si1 Al2 2.86(3) 4_575 ?
Si1 Al2 2.89(2) . ?
Si2 O6 1.42(3) . ?
Si2 O7 1.61(3) . ?
Si2 O3 1.66(5) 4_576 ?
Si2 O2 1.77(4) . ?
Si2 O2 2.07(5) 4_575 ?
Si2 Al1 2.76(3) 2 ?
Si2 Al2 2.839(17) . ?
Al1 O2 1.43(5) 3_566 ?
Al1 O1 1.79(4) 1_455 ?
Al1 O3 1.80(3) . ?
Al1 O7 1.83(3) . ?
Al1 O3 1.93(4) 3_565 ?
Al1 Al1 2.89(2) 3_565 ?
Al2 O4 1.59(5) 4_576 ?
Al2 O6 1.73(3) . ?
Al2 O8 1.80(4) 2_655 ?
Al2 O5 1.91(4) . ?
Al2 O8 1.94(4) 3_666 ?
