#------------------------------------------------------------------------------
#$Date: 2021-07-04 04:49:46 +0300 (Sun, 04 Jul 2021) $
#$Revision: 266973 $
#$URL: file:///home/coder/svn-repositories/cod/cif/1/56/31/1563148.cif $
#------------------------------------------------------------------------------
#
# This file is available in the Crystallography Open Database (COD),
# http://www.crystallography.net/
#
# All data on this site have been placed in the public domain by the
# contributors.
#
data_1563148
loop_
_publ_author_name
'Gorelova, Liudmila A.'
'Pakhomova, Anna S.'
'Krzhizhanovskaya, Maria G.'
'Pankin, Dmitrii V.'
'Krivovichev, Sergey V.'
'Dubrovinsky, Leonid S.'
'Kasatkin, Anatoly V.'
_publ_section_title
;
 Crystal Structure Evolution of Slawsonite SrAl2Si2O8 and Paracelsian
 BaAl2Si2O8 upon Compression and Decompression
;
_journal_issue                   23
_journal_name_full               'The Journal of Physical Chemistry C'
_journal_page_first              13014
_journal_page_last               13023
_journal_paper_doi               10.1021/acs.jpcc.1c02949
_journal_volume                  125
_journal_year                    2021
_chemical_formula_sum            'Al2 O8 Si2 Sr'
_chemical_formula_weight         325.76
_space_group_crystal_system      monoclinic
_space_group_IT_number           14
_space_group_name_Hall           '-P 2ybc'
_space_group_name_H-M_alt        'P 1 21/c 1'
_audit_creation_method           SHELXL-2018/3
_cell_angle_alpha                90
_cell_angle_beta                 90.0647(17)
_cell_angle_gamma                90
_cell_formula_units_Z            4
_cell_length_a                   8.83268(13)
_cell_length_b                   8.7958(10)
_cell_length_c                   6.92308(16)
_cell_measurement_reflns_used    837
_cell_measurement_temperature    293(2)
_cell_measurement_theta_max      18.407
_cell_measurement_theta_min      2.544
_cell_volume                     537.86(6)
_computing_structure_refinement  'SHELXL-2018/3 (Sheldrick, 2018)'
_diffrn_ambient_temperature      293(2)
_diffrn_measured_fraction_theta_full 0.376
_diffrn_measured_fraction_theta_max 0.243
_diffrn_measurement_device_type
'esperanto-CrysAlisPro-abstract goniometer imported esperanto images'
_diffrn_radiation_type           synchrotron
_diffrn_radiation_wavelength     0.41106
_diffrn_reflns_av_R_equivalents  0.0461
_diffrn_reflns_av_unetI/netI     0.0708
_diffrn_reflns_Laue_measured_fraction_full 0.376
_diffrn_reflns_Laue_measured_fraction_max 0.243
_diffrn_reflns_limit_h_max       12
_diffrn_reflns_limit_h_min       -12
_diffrn_reflns_limit_k_max       6
_diffrn_reflns_limit_k_min       -4
_diffrn_reflns_limit_l_max       10
_diffrn_reflns_limit_l_min       -9
_diffrn_reflns_number            837
_diffrn_reflns_point_group_measured_fraction_full 0.376
_diffrn_reflns_point_group_measured_fraction_max 0.243
_diffrn_reflns_theta_full        14.279
_diffrn_reflns_theta_max         18.407
_diffrn_reflns_theta_min         2.544
_exptl_absorpt_coefficient_mu    2.528
_exptl_crystal_colour            colorless
_exptl_crystal_density_diffrn    4.023
_exptl_crystal_density_meas      ?
_exptl_crystal_density_method    none
_exptl_crystal_description       isosymmetric
_exptl_crystal_F_000             624
_exptl_crystal_size_max          0.010
_exptl_crystal_size_mid          0.010
_exptl_crystal_size_min          0.005
_refine_diff_density_max         0.934
_refine_diff_density_min         -0.970
_refine_diff_density_rms         0.252
_refine_ls_extinction_method     none
_refine_ls_goodness_of_fit_ref   1.162
_refine_ls_hydrogen_treatment    undef
_refine_ls_matrix_type           full
_refine_ls_number_parameters     78
_refine_ls_number_reflns         495
_refine_ls_number_restraints     0
_refine_ls_restrained_S_all      1.162
_refine_ls_R_factor_all          0.0846
_refine_ls_R_factor_gt           0.0475
_refine_ls_shift/su_max          0.000
_refine_ls_shift/su_mean         0.000
_refine_ls_structure_factor_coef Fsqd
_refine_ls_weighting_details
'w=1/[\s^2^(Fo^2^)+(0.0292P)^2^+15.2261P] where P=(Fo^2^+2Fc^2^)/3'
_refine_ls_weighting_scheme      calc
_refine_ls_wR_factor_gt          0.1020
_refine_ls_wR_factor_ref         0.1453
_reflns_Friedel_coverage         0.000
_reflns_number_gt                359
_reflns_number_total             495
_reflns_threshold_expression     'I > 2\s(I)'
_cod_data_source_file            slav_p05.cif
_cod_data_source_block           shelx
_cod_depositor_comments
;
The following automatic conversions were performed:

data item '_exptl_crystal_density_meas' value 'none' was changed to
'?' -- the value is perceived as not measured.

Automatic conversion script
Id: cif_fix_values 7556 2019-12-06 15:28:31Z antanas 

 Adding full bibliography for 1563145--1563156.cif.
;
_cod_original_sg_symbol_H-M      'P 21/c'
_cod_database_code               1563148
_shelx_shelxl_version_number     2018/3
_shelx_space_group_comment
;
The symmetry employed for this shelxl refinement is uniquely defined
by the following loop, which should always be used as a source of
symmetry information in preference to the above space-group names.
They are only intended as comments.
;
_shelx_res_file
;
TITL slav_p05_s3 in P2(1)/c
    shelx.res
    created by SHELXL-2018/3 at 13:29:30 on 19-Jan-2021
REM P2(1)/c (#14 in standard setting)
CELL 0.41106   8.832680   8.795786   6.923081  90.0000  90.0647  90.0000
ZERR    4.00   0.000135   0.001009   0.000159   0.0000   0.0017   0.0000
LATT  1
SYMM -x, y+1/2,-z+1/2
SFAC O Al Si Sr
DISP O 0.00165 0.00179 4.1539
DISP Si 0.026465 0.022605 52.36784
DISP Al 0.019188 0.016298 37.75624
DISP Sr 0.242892 1.295112 3000.317
UNIT 32.00 8.00 8.00 4.00

OMIT    10   4   2
OMIT     6   0   8
OMIT     6   3  10
OMIT     8   4   1
OMIT   -10   6   3
OMIT     5   1   9
OMIT     2   5   8
OMIT   -10   5   4
OMIT    -6   6   4
OMIT    -5   5   3
OMIT     5   5   8
OMIT    -6   6   5

MERG   2
FMAP   2
PLAN   100
BOND
LIST   10
ACTA
REM DAMP 5000
L.S.  20
REM EXTI    0.005489
WGHT    0.029200   15.226100
FVAR       1.76745
SR1   4    0.748679    0.610840    0.269251    11.00000    0.00890    0.02383 =
         0.01555   -0.00039   -0.00297   -0.00012
SI1   3    0.583617    0.544800    0.779802    11.00000    0.00506    0.00269 =
         0.01585    0.00183   -0.00242    0.00207
SI2   3    1.072206    0.711320    0.500039    11.00000    0.00684    0.02320 =
         0.01198   -0.00361   -0.00250    0.00160
AL1   2    0.913191    0.535775    0.817423    11.00000    0.00785    0.01307 =
         0.01146   -0.00517   -0.00172    0.00552
AL2   2    0.408261    0.764821    1.013159    11.00000    0.00857    0.02992 =
         0.01696   -0.00245   -0.00684   -0.00641
O1    1    0.735409    0.598030    0.891490    11.00000    0.00568
O2    1    0.951102    0.369991    0.709899    11.00000    0.01358
O3    1    1.077555    0.895383    0.440243    11.00000    0.00937
O4    1    0.427733    0.598722    0.887738    11.00000    0.00898
O5    1    0.579134    0.635756    0.578803    11.00000    0.00789
O6    1    1.233693    0.657318    0.580005    11.00000    0.01166
O7    1    0.917039    0.657265    0.608742    11.00000    0.01350
O8    1    0.579081    0.364440    0.746746    11.00000    0.01318

HKLF 4




REM  slav_p05_s3 in P2(1)/c
REM wR2 = 0.1453, GooF = S = 1.162, Restrained GooF = 1.162 for all data
REM R1 = 0.0475 for 359 Fo > 4sig(Fo) and 0.0846 for all 495 data
REM 78 parameters refined using 0 restraints

END

WGHT      0.0292     15.2472

REM Highest difference peak  0.934,  deepest hole -0.970,  1-sigma level  0.252
Q1    1   0.7845  0.4696  0.2017  11.00000  0.05    0.93
Q2    1   0.8798  0.6376  1.0499  11.00000  0.05    0.88
Q3    1   0.3750  0.6316  1.0616  11.00000  0.05    0.88
Q4    1   0.6194  0.6921  0.5597  11.00000  0.05    0.86
Q5    1   0.7828  0.5644  0.4019  11.00000  0.05    0.86
Q6    1   0.6998  0.5016  0.9938  11.00000  0.05    0.82
Q7    1   0.9599  0.5988  0.6701  11.00000  0.05    0.82
Q8    1   0.2796  0.6843  0.9874  11.00000  0.05    0.82
Q9    1   0.6795  0.6251  0.3097  11.00000  0.05    0.81
Q10   1   0.7141  0.7471  0.8527  11.00000  0.05    0.81
Q11   1   0.6774  0.4796  0.9195  11.00000  0.05    0.80
Q12   1   0.6278  0.3288  0.7270  11.00000  0.05    0.79
Q13   1   1.0047  0.6777  0.6652  11.00000  0.05    0.75
Q14   1   0.5990  0.6441  0.9570  11.00000  0.05    0.73
Q15   1   0.5004  0.4785  0.7782  11.00000  0.05    0.72
Q16   1   1.3091  0.6319  0.5339  11.00000  0.05    0.71
Q17   1   0.8012  0.6845  0.6708  11.00000  0.05    0.71
Q18   1   0.8828  0.4462  0.7413  11.00000  0.05    0.70
Q19   1   0.4986  0.5622  0.5702  11.00000  0.05    0.70
Q20   1   1.0619  0.8183  0.5399  11.00000  0.05    0.69
Q21   1   0.6134  0.5082  0.2798  11.00000  0.05    0.69
Q22   1   0.5701  0.7941  0.5890  11.00000  0.05    0.68
Q23   1   0.5146  0.6763  0.5597  11.00000  0.05    0.68
Q24   1   0.4566  0.3961  0.7973  11.00000  0.05    0.68
Q25   1   0.4540  0.5686  0.4785  11.00000  0.05    0.68
Q26   1   1.0027  0.4924  0.6121  11.00000  0.05    0.68
Q27   1   1.1578  0.6000  0.5868  11.00000  0.05    0.67
Q28   1   0.5791  0.7068  0.8247  11.00000  0.05    0.66
Q29   1   1.1934  0.8741  0.3945  11.00000  0.05    0.66
Q30   1   0.8838  0.7303  0.3002  11.00000  0.05    0.66
Q31   1   1.3072  0.6944  0.7690  11.00000  0.05    0.66
Q32   1   0.7015  0.6257  0.6771  11.00000  0.05    0.65
Q33   1   0.4398  0.6779  0.8103  11.00000  0.05    0.65
Q34   1   1.0539  0.5999  0.6415  11.00000  0.05    0.65
Q35   1   0.5843  0.5303  0.4981  11.00000  0.05    0.65
Q36   1   1.0165  0.9266  0.4998  11.00000  0.05    0.64
Q37   1   1.0149  0.5155  0.6514  11.00000  0.05    0.63
Q38   1   0.9839  0.6884  0.5409  11.00000  0.05    0.63
Q39   1   0.7605  0.6489  0.8005  11.00000  0.05    0.63
Q40   1   0.3812  0.6770  0.9709  11.00000  0.05    0.63
Q41   1   0.7283  0.3931  0.8899  11.00000  0.05    0.63
Q42   1   0.6850  0.4518  0.5917  11.00000  0.05    0.62
Q43   1   0.5041  0.5510  0.8427  11.00000  0.05    0.62
Q44   1   0.4023  0.7127  0.9707  11.00000  0.05    0.62
Q45   1   0.6265  0.5154  0.6134  11.00000  0.05    0.62
Q46   1   1.2203  0.5104  0.5480  11.00000  0.05    0.61
Q47   1   0.8530  0.6476  0.1966  11.00000  0.05    0.60
Q48   1   0.8727  0.6101  0.4666  11.00000  0.05    0.59
Q49   1   0.3614  0.6391  0.9764  11.00000  0.05    0.59
Q50   1   0.5382  0.7154  0.9745  11.00000  0.05    0.59
Q51   1   0.8380  0.3995  0.8584  11.00000  0.05    0.58
Q52   1   1.1825  0.8128  0.5229  11.00000  0.05    0.57
Q53   1   1.2440  0.7976  0.7400  11.00000  0.05    0.57
Q54   1   0.3451  0.6007  0.7276  11.00000  0.05    0.57
Q55   1   0.5451  0.7776  0.8830  11.00000  0.05    0.57
Q56   1   0.9831  0.2785  0.6932  11.00000  0.05    0.56
Q57   1   0.9246  0.7445  0.5789  11.00000  0.05    0.56
Q58   1   0.5841  0.6283  0.3293  11.00000  0.05    0.56
Q59   1   0.6456  0.5766  0.8304  11.00000  0.05    0.56
Q60   1   0.8965  0.7005  0.6393  11.00000  0.05    0.55
Q61   1   0.5993  0.4585  0.6343  11.00000  0.05    0.55
Q62   1   1.1797  0.9940  0.4915  11.00000  0.05    0.55
Q63   1   0.7408  0.3337  0.7734  11.00000  0.05    0.54
Q64   1   1.2042  0.5640  0.4481  11.00000  0.05    0.54
Q65   1   1.0922  0.8340  0.3656  11.00000  0.05    0.54
Q66   1   0.4774  0.4583  0.6691  11.00000  0.05    0.54
Q67   1   0.9934  0.3207  0.6662  11.00000  0.05    0.53
Q68   1   1.2873  0.5345  0.6449  11.00000  0.05    0.53
Q69   1   1.2205  0.7993  0.6438  11.00000  0.05    0.53
Q70   1   0.4602  0.6983  1.1206  11.00000  0.05    0.52
Q71   1   0.6559  0.6114  0.8274  11.00000  0.05    0.51
Q72   1   0.7240  0.5462  0.5604  11.00000  0.05    0.51
Q73   1   1.0583  0.3912  0.6463  11.00000  0.05    0.51
Q74   1   1.0243  0.6081  0.5299  11.00000  0.05    0.50
Q75   1   0.9225  0.5424  0.9882  11.00000  0.05    0.50
Q76   1   0.7173  0.3861  0.8029  11.00000  0.05    0.49
Q77   1   1.0961  0.4791  0.5933  11.00000  0.05    0.49
Q78   1   0.9143  0.6798  0.6920  11.00000  0.05    0.49
Q79   1   0.6726  0.6880  0.0949  11.00000  0.05    0.49
Q80   1   0.5883  0.3820  0.8406  11.00000  0.05    0.49
Q81   1   1.0220  0.9126  0.5719  11.00000  0.05    0.49
Q82   1   1.2399  0.9723  0.3899  11.00000  0.05    0.48
Q83   1   1.1530  0.6680  0.7238  11.00000  0.05    0.48
Q84   1   0.7933  0.3857  0.6562  11.00000  0.05    0.48
Q85   1   1.1438  0.6310  0.5128  11.00000  0.05    0.47
Q86   1   0.3217  0.7140  1.1049  11.00000  0.05    0.47
Q87   1   0.6052  0.7846  0.6972  11.00000  0.05    0.47
Q88   1   0.5122  0.3718  0.6583  11.00000  0.05    0.47
Q89   1   0.7753  0.6135  0.5216  11.00000  0.05    0.47
Q90   1   0.9810  0.3934  0.6934  11.00000  0.05    0.47
Q91   1   0.9624  0.6790  0.8029  11.00000  0.05    0.47
Q92   1   0.8034  0.7568  0.3044  11.00000  0.05    0.46
Q93   1   0.9179  0.5109  0.4594  11.00000  0.05    0.46
Q94   1   0.4835  0.6235  1.0022  11.00000  0.05    0.46
Q95   1   0.7222  0.7163  0.5487  11.00000  0.05    0.46
Q96   1   0.6752  0.5238  0.7282  11.00000  0.05    0.46
Q97   1   0.6352  0.7212  0.6702  11.00000  0.05    0.45
Q98   1   0.7595  0.6439  1.0420  11.00000  0.05    0.45
Q99   1   1.1345  0.9992  0.3698  11.00000  0.05    0.45
Q100  1   1.0270  0.9933  0.3864  11.00000  0.05    0.45
;
_shelx_res_checksum              19622
_shelx_hkl_file
;
   0  -1   3 1966.27 181.914   1
   0  -1   4 17729.8 633.721   1
   0  -1   5 726.431 154.268   1
   0  -1   6 3560.12 355.581   1
   0  -1   7 1188.55 226.905   1
   0   2  -3 137434. 1536.60   1
   0   2  -4 2165.75 199.958   1
   0  -2   4 2060.89 230.632   1
   0  -2   5 10253.8 523.987   1
   0  -2   6 3721.76 353.525   1
   0  -2   7 3416.43 358.372   1
   0  -2   8 2433.44 319.057   1
   0   3  -4 8322.91 457.658   1
   0   3  -5 12360.2 524.743   1
   0   4  -5 1219.52 189.596   1
   0   4  -6 33828.3 944.129   1
   0   5  -6 56.6553 49.6573   1
   0   6  -7 0.78505 9.97217   1
   1   0   1-1.14223 3.41985   1
  -1   0  -1 1.07525 10.1804   1
   1   0   2 2921.07 245.474   1
  -1   0  -2 2722.67 255.466   1
   1   0   3-3.43939 9.76915   1
  -1  -1   4 3.76245 8.95700   1
  -1   1  -1 5678.75 376.278   1
  -1   1  -2 40914.2 940.958   1
   1  -1   2 40140.6 975.064   1
  -1   1  -3 3563.89 331.420   1
   1  -1   3 4619.11 354.398   1
  -1   1  -4 1867.36 248.649   1
   1  -1   4 1646.95 229.077   1
   1  -1   5 8151.95 555.463   1
   1  -1   6 1614.95 270.602   1
   1  -1   7 1680.48 285.173   1
   1  -1   8 73.8715 105.731   1
  -1  -2   8 3119.20 315.092   1
  -1  -2   7 3533.04 296.016   1
  -1  -2   6 2330.19 234.267   1
  -1  -2   5 1351.47 155.300   1
  -1   2  -3 2765.81 304.970   1
  -1   2  -4 1963.27 251.836   1
   1  -2   4 2033.74 274.392   1
   1  -2   5 2221.78 296.841   1
  -1   2  -5 2464.51 292.933   1
   1  -2   6 13.7826 49.9378   1
   1  -2   7 6049.82 553.787   1
   1  -2   8-42.8257 47.9996   1
  -1   3  -4 21132.8 914.665   1
  -1   3  -5 1586.17 246.685   1
  -1   3  -6 1386.14 241.850   1
   1  -3   7 2520.05 353.973   1
   1   4  -5 1.98423 8.66014   1
  -1   4  -5 1020.57 230.549   1
  -1   4  -6 1628.80 259.829   1
  -1   4  -7 2264.57 303.976   1
   1   5  -6 416.710 84.9423   1
  -1   5  -6 37.3233 45.7189   1
  -1   5  -7 1600.43 261.173   1
  -2   0   0 114.461 47.7426   1
   2   0   0 113.609 48.5066   1
   2   0   1 7.74904 19.2370   1
  -2   0  -1 1.86893 13.7064   1
  -2   0  -2 31901.1 970.911   1
   2   0   2 30962.5 987.947   1
   2   0   3 2.76077 46.0219   1
  -2   0  -3 3.47153 18.2817   1
   2   0   4 1171.21 233.753   1
   2   0   5 19.7206 38.3500   1
   2   1  -1 416.481 75.9457   1
  -2  -1   1 415.232 75.8892   1
  -2  -1   0 0.48748 6.92312   1
   2   1   0 0.99131 9.95499   1
   2  -1   1 1172.52 201.057   1
  -2   1  -1 836.273 194.473   1
   2   1   1 1179.99 177.483   1
  -2  -1  -1 1298.89 184.512   1
   2  -1   2 1702.92 241.257   1
  -2   1  -2 1881.46 251.225   1
  -2   1  -3 7911.39 593.517   1
   2  -1   4 24.5142 35.1749   1
  -2   1  -4 105.584 62.1701   1
  -2   1  -5 26940.7 1159.82   1
   2  -1   5 26066.8 1141.91   1
   2  -1   6 502.279 158.694   1
   2  -1   7 11995.3 867.484   1
   2  -1   8 2973.01 450.672   1
  -2  -2   7 2547.84 187.571   1
   2  -2   3 23336.8 1069.36   1
  -2   2  -3 22732.4 1022.89   1
  -2   2  -4 2936.42 358.145   1
   2  -2   4 2778.07 377.263   1
   2  -2   5 13044.5 823.872   1
  -2   2  -5 13542.1 787.980   1
   2  -2   6-6.82680 42.4828   1
  -2   2  -6 1.15365 31.9383   1
   2  -2   7 1809.26 319.804   1
   2  -2   8 6314.81 646.413   1
   2  -2   9 516.067 196.182   1
  -2   3  -4 15.0432 38.1841   1
  -2   3  -5 259.387 132.019   1
  -2   3  -6 9.03431 37.2689   1
   2  -3   6 11.9027 13.3638   1
   2  -3   7 454.036 163.600   1
  -2   3  -7 233.458 138.074   1
   2  -3   8 4708.31 544.244   1
  -2   4  -5 382.230 163.728   1
  -2   4  -6 1893.81 320.815   1
  -2   4  -7 1.20241 33.2881   1
  -2   5  -6 4227.26 537.686   1
  -2   5  -7 25.6659 75.7724   1
  -2   5  -8 11.3136 28.7867   1
  -3   0   1 14.0470 22.9905   1
   3   0   0 2372.74 301.819   1
  -3   0   0 2228.41 284.753   1
   3   0   1-10.8298 35.3723   1
  -3   0  -1-2.69147 11.3962   1
  -3   0  -2 32884.3 1179.79   1
  -3   0  -3-1.10908 19.9237   1
   3   0   3-59.1323 60.5581   1
  -3   0  -4 9009.95 703.170   1
   3   0   5 7.56361 21.4835   1
   3   0   6 122.433 118.138   1
  -3  -1   3 41916.6 948.347   1
  -3  -1   2 482.579 98.1042   1
  -3  -1   1 94425.4 1533.26   1
   3   1  -1 93429.3 1697.76   1
   3   1   0 65730.8 1440.02   1
  -3   1  -1 96737.7 2145.37   1
   3  -1   1 94495.0 2232.97   1
  -3  -1  -1 94007.5 1836.29   1
   3   1   1 93481.5 1869.32   1
   3   1   2 3444.41 377.190   1
   3  -1   2 3514.20 412.318   1
  -3  -1  -2 3690.06 394.429   1
  -3   1  -2 3556.72 421.103   1
  -3   1  -3 61661.2 1732.51   1
   3  -1   3 61214.4 1833.49   1
  -3   1  -4 43650.9 1506.45   1
   3  -1   4 45158.5 1625.47   1
   3  -1   5 16844.2 1040.70   1
  -3   1  -5 17196.9 996.524   1
  -3   1  -6-22.8995 58.1763   1
   3  -1   6 11.4737 27.5433   1
   3  -1   7 1316.01 306.221   1
   3  -1   8 11528.1 975.399   1
  -3  -2   3 3241.43 163.076   1
  -3  -2   2 567.655 114.035   1
   3   2  -2 725.759 129.785   1
   3   2  -1 3298.83 291.682   1
  -3  -2   1 3455.74 306.636   1
   3   2   0 488.231 124.514   1
  -3   2  -2 2954.09 437.797   1
   3  -2   3 2712.26 420.542   1
  -3   2  -3 2497.17 401.485   1
  -3   2  -4 2888.56 405.331   1
   3  -2   4 2728.60 426.390   1
   3  -2   5 49666.5 1844.00   1
  -3   2  -5 53121.4 1703.19   1
   3  -2   6 1163.35 281.281   1
  -3   2  -6 1439.85 309.580   1
  -3   2  -7 1917.32 370.801   1
   3  -2   7 3718.98 505.365   1
   3  -2   8 184.445 145.913   1
   3  -2   9 8652.50 833.341   1
   3   3  -3 577.653 104.026   1
   3   3  -2 29258.7 823.487   1
  -3   3  -4 6.37069 20.2310   1
  -3   3  -5 9858.71 789.400   1
  -3   3  -6 26408.1 1279.44   1
   3  -3   6 24793.9 1399.23   1
  -3   3  -7 3871.39 514.281   1
   3  -3   7 4730.08 627.860   1
   3  -3   8 1249.83 317.455   1
   3  -3   9 278.899 158.656   1
  -3   4  -5 888.910 262.705   1
  -3   4  -6 10257.2 875.155   1
  -3   4  -7 8753.98 748.252   1
  -3   4  -8 10161.3 807.264   1
  -3   5  -7 2583.73 456.004   1
  -3   5  -8 36.2471 60.8844   1
  -4   0   1 7.75462 7.03595   1
   4   0   0 8049.19 662.859   1
  -4   0   0 8241.56 637.461   1
  -4   0  -1-2.36476 19.8685   1
   4   0   1 10.5936 11.8940   1
  -4   0  -2 30919.5 1316.37   1
   4   0   2 30335.5 1326.51   1
   4   0   3-5.97761 18.9827   1
  -4   0  -3 1.36018 25.9166   1
  -4   0  -4 5918.21 633.043   1
   4   0   4 6198.14 651.099   1
   4   0   5 1.80732 36.2991   1
  -4   0  -5-21.6836 57.0490   1
   4   0   6 5529.62 669.981   1
   4   0   7 17.1433 73.2931   1
  -4  -1   3 14774.1 670.517   1
  -4  -1   2 4280.76 377.888   1
   4   1  -1 239.767 92.2638   1
  -4  -1   1 282.958 94.5839   1
   4   1   0 3.29719 19.7437   1
  -4  -1   0 17.8859 27.5090   1
   4   1   1 1003.05 219.023   1
   4  -1   1 1299.05 286.552   1
  -4  -1  -1 1294.13 227.284   1
  -4   1  -1 981.694 273.205   1
   4   1   2 57.5890 66.4348   1
   4  -1   2 11.0740 351.012   1
  -4  -1  -2 190.121 87.0234   1
  -4   1  -2 133.226 75.5772   1
  -4  -1  -3 1680.17 318.312   1
   4   1   3 1343.60 288.652   1
   4  -1   3 1507.89 331.381   1
  -4   1  -3 1592.69 325.074   1
   4  -1   4 6076.88 658.722   1
  -4   1  -4 5342.35 583.996   1
   4   1   4 5982.58 651.407   1
  -4   1  -5 922.377 251.158   1
   4  -1   5 1053.57 267.433   1
  -4   1  -6 671.542 243.463   1
   4  -1   6 611.800 209.652   1
   4  -1   7 4788.67 654.788   1
   4  -1   8 757.502 258.159   1
   4  -1   9-26.9829 80.9539   1
  -4  -2   4 1497.89 163.370   1
  -4  -2   3 30430.7 813.426   1
   4   2  -2 8755.44 554.030   1
  -4  -2   2 8532.47 492.185   1
   4   2  -1 50700.2 1388.66   1
  -4  -2   0 739.703 174.625   1
   4   2   0 883.445 187.191   1
   4   2   1 31223.2 1225.05   1
  -4  -2  -1 31584.4 1226.38   1
  -4   2  -2 39.6651 36.3276   1
  -4   2  -3 20969.7 1298.36   1
   4  -2   3 23930.4 1366.50   1
  -4   2  -4 1766.56 355.145   1
   4  -2   4 1490.04 353.843   1
   4  -2   5 8664.80 835.553   1
   4  -2   6 64.8683 60.9033   1
  -4   2  -6 115.909 101.301   1
  -4   2  -7 4618.54 634.252   1
   4  -2   7 5409.06 681.787   1
   4  -2   8 86.5848 92.6638   1
   4  -2   9 267.594 155.578   1
   4   3  -3 15.4509 21.3331   1
   4   3  -2 583.341 138.593   1
   4   3  -1 699.734 173.928   1
  -4   3  -4 6450.44 728.746   1
   4  -3   5-39.3846 102.120   1
  -4   3  -5 19.9776 36.4763   1
  -4   3  -6 2623.00 469.543   1
   4  -3   6 2398.08 457.088   1
  -4   3  -7 4250.86 569.818   1
   4  -3   7 4121.53 614.410   1
   4  -3   8 2358.97 493.246   1
  -4   3  -8 2137.07 421.925   1
   4  -3   9 45.7627 94.2995   1
   4   4  -4 19838.0 654.685   1
   4   4  -3 13952.0 636.678   1
  -4   4  -5 7652.51 836.724   1
  -4   4  -6 1508.24 367.940   1
  -4   4  -7 122.956 103.351   1
  -4   4  -8 2827.83 479.187   1
  -4   4  -9-100.399 90.1119   1
   4   5  -4 5524.62 356.103   1
  -4   5  -7 4758.32 638.714   1
  -4   5  -8-1.95079 24.7800   1
  -5   0   1 26.2624 37.2457   1
  -5   0   0 1074.69 241.411   1
   5   0   0 796.799 250.604   1
   5   0   1 1.66563 394.405   1
  -5   0  -1 1.47379 18.7209   1
   5   0   2 2811.92 436.590   1
  -5   0  -2 2735.95 422.846   1
   5   0   3-3.81466 20.9820   1
  -5   0  -3 1.63875 10.4082   1
   5   0   4 21853.1 1333.27   1
  -5   0  -4 20564.7 1235.91   1
   5   0   5-36.6706 94.9182   1
  -5   0  -5-1.93198 24.5410   1
   5   0   6 17936.3 1321.52   1
  -5   0  -6 9917.90 951.476   1
   5   0   7 17.6035 59.7621   1
  -5  -1   3 4261.88 429.087   1
  -5  -1   2 14775.1 815.834   1
  -5  -1   1 9024.02 649.905   1
   5   1  -1 9278.44 726.918   1
   5   1   0 1166.51 267.234   1
  -5  -1   0 1256.39 244.375   1
   5  -1   1 1123.64 303.970   1
  -5   1  -1 994.550 242.890   1
  -5  -1  -1 1125.63 234.187   1
   5   1   1 1060.05 252.296   1
   5  -1   2 28193.8 1520.54   1
   5   1   2 27017.7 1358.39   1
  -5   1  -2 27022.2 1426.21   1
  -5  -1  -2 29489.3 1351.57   1
   5  -1   3 2292.47 464.095   1
   5   1   3 2919.35 458.824   1
  -5  -1  -3 2487.64 441.303   1
  -5   1  -3 3294.62 472.700   1
   5   1   4 138.181 86.2660   1
  -5   1  -4 162.440 111.874   1
   5  -1   4 174.652 151.847   1
  -5  -1  -4 104.972 114.004   1
   5  -1   5 6835.25 802.341   1
  -5   1  -5 6572.28 730.520   1
   5   1   5 6245.59 744.864   1
  -5   1  -6 11866.4 1019.24   1
   5  -1   6 10901.3 1067.45   1
   5  -1   7 3136.09 583.121   1
  -5   1  -7 3190.32 566.221   1
   5  -1   8 54.6916 124.033   1
   5  -1   9 711.919 297.358   1
  -5  -2   6 5.26429 14.0974   1
  -5  -2   5 948.200 150.199   1
  -5  -2   4 1142.76 174.788   1
  -5  -2   3 1846.94 241.305   1
  -5  -2   2 1.78214 11.3188   1
   5   2  -2-1.17103 37.9241   1
   5   2  -1 4.94315 49.0159   1
  -5  -2   1 12.4556 32.9621   1
  -5  -2   0 701.113 180.870   1
   5   2   0 696.556 186.228   1
  -5  -2  -1 324.947 148.294   1
   5   2   1 337.704 144.570   1
  -5  -2  -2 2706.69 407.401   1
  -5   2  -2 2839.27 497.022   1
   5   2   2 2653.35 414.413   1
  -5   2  -3 1880.60 391.831   1
   5  -2   3 1517.74 375.993   1
  -5   2  -4 2695.71 490.850   1
   5  -2   4 2885.83 541.127   1
   5  -2   5 12.0638 15.3241   1
  -5   2  -5-39.2792 68.2262   1
   5  -2   6 3545.79 597.193   1
  -5   2  -6 3544.17 555.660   1
   5  -2   7 3277.61 601.522   1
  -5   2  -7 3651.29 584.620   1
   5  -2   8 2470.16 496.772   1
  -5   2  -8 2159.46 468.453   1
   5  -2   9 2081.15 476.418   1
   5   3  -3 1999.30 295.654   1
  -5  -3   3 1571.72 220.420   1
  -5  -3   2 7089.93 533.908   1
   5   3  -2 7554.59 580.297   1
   5   3  -1 6344.60 554.679   1
  -5  -3   1-11.4211 42.9142   1
   5   3   0 34062.2 1388.25   1
  -5   3  -4 14766.3 1184.75   1
   5  -3   5 2688.57 521.912   1
  -5   3  -5 4211.70 607.152   1
  -5   3  -6 392.436 189.392   1
   5  -3   6 665.868 296.882   1
  -5   3  -7 96.9057 100.506   1
   5  -3   7 225.622 155.384   1
   5  -3   8 2651.59 532.676   1
  -5   3  -8 2601.61 491.054   1
  -5   3  -9-43.0145 62.5787   1
   5  -3   9 2.84447 97.2884   1
   5   4  -4 3663.21 370.850   1
   5   4  -3 0.88646 18.6731   1
   5   4  -2 972.877 218.926   1
  -5   4  -6 991.532 324.127   1
  -5   4  -7 1266.26 378.400   1
  -5   4  -8 1398.03 349.674   1
  -5   4  -9 38.6276 61.2273   1
   5   5  -4 970.607 182.454   1
   5   5  -3 2.81872 23.8699   1
  -5   5  -8 224.874 144.202   1
   5   6  -5 1411.06 204.203   1
  -6   0   1-6.66650 51.8565   1
   6   0   0 245258. 4661.22   1
  -6   0   0 252495. 4260.94   1
   6   0   1 10.3884 37.3235   1
  -6   0  -1 10.6134 47.6651   1
   6   0   2 14684.8 1152.82   1
  -6   0  -2 14523.6 1079.78   1
   6   0   3-9.23815 25.4066   1
  -6   0  -3 13.7675 37.4747   1
   6   0   4 45347.0 2150.67   1
  -6   0  -4 48018.0 2037.96   1
   6   0   5-2.65107 50.5129   1
  -6   0  -5-11.3136 35.2019   1
   6   0   6 6370.53 878.509   1
  -6   0  -6 6783.28 860.005   1
   6   0   7 3.02508 50.8331   1
   6   0   8 28.9128 113.603   1
  -6  -1   3 147.173 78.0193   1
  -6  -1   2 37.3677 48.4164   1
  -6  -1   1 9.73845 30.6085   1
   6   1  -1 1.80813 34.4517   1
   6   1   0 5290.72 632.859   1
  -6   1  -1 58.4604 62.1978   1
  -6  -1  -1 123.231 89.7709   1
   6   1   1 82.6286 80.9559   1
   6  -1   1 148.290 125.078   1
  -6   1  -2 2197.09 417.935   1
   6   1   2 2215.12 428.802   1
  -6  -1  -2 2201.37 375.658   1
   6  -1   2 2519.39 497.605   1
   6  -1   3 3358.24 581.866   1
  -6   1  -3 4051.60 592.403   1
  -6  -1  -3 3900.51 575.057   1
   6   1   3 4258.00 594.246   1
   6  -1   4 2260.94 477.865   1
  -6  -1  -4 2632.18 477.220   1
  -6   1  -4 2030.97 445.856   1
   6   1   4 2547.80 481.095   1
  -6  -1  -5 117.940 143.697   1
   6   1   5 58.9757 60.9354   1
   6  -1   5 91.4182 85.3854   1
  -6   1  -5 45.1946 84.9085   1
   6  -1   6 3579.50 633.420   1
  -6   1  -6 3924.81 629.386   1
   6   1   6 1943.13 488.711   1
   6  -1   7 288.125 193.588   1
  -6   1  -7 260.754 149.109   1
   6  -1   8 2365.54 574.554   1
   6  -1   9 1573.30 454.101   1
  -6  -2   6 1027.19 162.151   1
  -6  -2   5 3148.69 313.423   1
  -6  -2   4 297.358 114.942   1
  -6  -2   3 36461.5 1250.98   1
  -6  -2   2 22751.6 1024.19   1
   6   2  -2 22509.8 1233.56   1
   6   2  -1 2416.83 423.171   1
  -6  -2   1 2335.53 358.427   1
  -6  -2   0 388.884 152.779   1
   6   2   0 379.344 156.736   1
   6   2   1 8282.54 776.688   1
   6   2   2 31938.1 1631.71   1
  -6  -2  -2 31787.1 1530.94   1
   6  -2   3 43577.1 2205.57   1
  -6   2  -3 39776.7 1965.42   1
   6   2   3 45039.4 2015.85   1
  -6  -2  -3 44325.3 1980.00   1
   6   2   4 46.7318 123.991   1
  -6   2  -4 979.467 318.913   1
   6  -2   4 878.608 302.822   1
   6  -2   5 10131.5 1125.10   1
  -6   2  -5 11482.3 1092.12   1
  -6   2  -6 3282.26 560.660   1
   6  -2   6 2793.62 622.498   1
   6  -2   7 3804.98 697.480   1
  -6   2  -7 3782.46 640.327   1
   6  -2   8 2034.42 500.461   1
  -6   2  -8 1803.41 451.388   1
   6  -2   9 5483.97 858.498   1
  -6  -3   4 2937.42 315.119   1
   6   3  -3 4449.82 501.106   1
  -6  -3   3 3608.11 374.281   1
  -6  -3   2 17462.5 899.306   1
   6   3  -2 17200.7 988.523   1
   6   3  -1 12287.6 877.653   1
  -6  -3   1 11941.1 808.892   1
   6   3   0 1.63966 27.5526   1
  -6  -3   0-48.3118 52.5199   1
  -6  -3  -1-14.1531 42.0422   1
   6   3   1 7880.44 774.773   1
  -6   3  -4 7096.83 927.355   1
   6  -3   5-104.418 120.240   1
  -6   3  -5 8823.98 964.860   1
  -6   3  -6 5613.34 765.038   1
   6  -3   6 4960.22 819.133   1
   6  -3   7 2607.99 580.568   1
  -6   3  -7 2451.06 522.780   1
   6  -3   8 7478.25 992.524   1
  -6   3  -8 7551.00 906.728   1
  -6   3  -9 3740.80 669.989   1
   6  -3   9 2963.27 634.414   1
   6  -3  10-54.3189 169.780   1
   6   4  -4 187.409 108.741   1
   6   4  -3 632.491 177.012   1
   6   4  -2 15923.5 938.749   1
   6   4  -1-6.09722 63.4843   1
  -6   4  -6 27039.4 1782.59   1
  -6   4  -7 946.548 306.704   1
  -6   4  -8 946.854 341.919   1
  -6   4  -9 18.7730 17.0332   1
   6   5  -4 524.764 159.157   1
   6   5  -3 9864.73 692.644   1
   6   6  -5 32.4349 57.0514   1
   6   6  -4 1.03398 17.3748   1
  -7   0   1-48.6835 64.2663   1
  -7   0   0-65.8445 82.1279   1
   7   0   0 34.7813 70.5657   1
  -7   0  -1 2.07397 18.6285   1
   7   0   1-42.9203 71.7115   1
   7   0   2 489.884 234.173   1
  -7   0  -2 765.394 264.767   1
   7   0   3-49.3330 57.7326   1
  -7   0  -3 32.5104 44.2462   1
   7   0   4 5637.50 855.481   1
  -7   0  -4 6371.30 793.294   1
   7   0   5 15.5777 62.5738   1
  -7   0  -5 2.62291 40.8056   1
  -7   0  -6 2323.59 523.041   1
   7   0   6 2146.28 542.141   1
   7   0   7 42.4303 50.2158   1
  -7   0  -7 27.7753 96.0245   1
  -7  -1   3 5152.26 563.097   1
  -7  -1   2 12704.2 939.435   1
   7   1  -1 5253.40 676.399   1
  -7  -1   1 4637.70 570.700   1
   7   1   0 7288.42 804.111   1
  -7  -1   0 6692.97 686.803   1
   7   1   1 2512.89 470.778   1
  -7   1  -1 2243.90 461.031   1
  -7  -1  -1 2063.91 417.852   1
   7  -1   1 1559.66 481.905   1
   7  -1   2 19977.0 1587.32   1
   7   1   2 20840.3 1457.14   1
  -7   1  -2 21970.5 1447.71   1
  -7  -1  -2 20233.2 1302.71   1
   7  -1   3 6023.56 847.817   1
  -7   1  -3 5311.76 740.159   1
   7   1   3 4696.86 717.754   1
  -7  -1  -3 5424.81 709.770   1
   7  -1   4 1876.40 485.539   1
  -7   1  -4 2060.33 469.422   1
   7   1   4 2065.77 485.549   1
  -7  -1  -4 2551.53 522.717   1
   7   1   5 6116.10 879.311   1
  -7   1  -5 6440.92 860.020   1
   7  -1   5 6939.45 929.767   1
  -7  -1  -5 6930.19 878.543   1
   7  -1   6 1390.74 422.148   1
  -7   1  -6 1440.60 427.408   1
   7   1   6 1440.00 435.970   1
  -7   1  -7 1989.12 499.417   1
   7  -1   7 1196.72 424.010   1
   7  -1   8 1964.88 561.767   1
  -7   1  -8 379.650 194.353   1
  -7  -2   6 835.848 163.492   1
  -7  -2   5 3355.52 354.066   1
  -7  -2   4 4368.66 446.291   1
  -7  -2   3 1898.47 320.028   1
  -7  -2   2 465.240 165.314   1
   7   2  -2 210.965 149.746   1
   7   2  -1-1.94884 44.6281   1
  -7  -2   1 41.0474 94.1117   1
   7   2   0 939.157 276.776   1
  -7  -2   0 847.500 242.658   1
  -7  -2  -1 1.90580 24.2085   1
   7   2   1 2.18283 486.384   1
   7   2   2 1037.57 308.488   1
  -7  -2  -2 1126.19 304.321   1
  -7  -2  -3 1045.33 313.285   1
  -7   2  -3 568.545 266.386   1
   7  -2   3 1156.13 386.990   1
   7   2   3 1444.31 374.437   1
  -7  -2  -4 472.485 238.582   1
   7   2   4 598.484 265.248   1
   7  -2   4 165.894 151.816   1
  -7   2  -4 285.981 194.175   1
  -7   2  -5 2034.97 474.432   1
   7  -2   5 2233.48 564.943   1
  -7   2  -6-33.8528 99.7596   1
   7  -2   6 102.662 147.437   1
  -7   2  -7 6085.46 870.065   1
   7  -2   7 5156.26 883.812   1
  -7   2  -8-75.6000 99.7984   1
   7  -2   8-75.8856 204.482   1
  -7  -3   5 1939.77 259.512   1
  -7  -3   4 11043.8 675.297   1
   7   3  -3 6219.87 683.622   1
  -7  -3   3 5891.05 547.681   1
   7   3  -2 8866.92 803.448   1
  -7  -3   2 8617.31 694.593   1
   7   3  -1 17766.9 1186.19   1
  -7  -3   1 18256.7 1093.85   1
   7   3   0 37616.4 1758.21   1
  -7  -3   0 39052.6 1673.32   1
   7   3   1 4444.69 615.824   1
  -7  -3  -1 4095.54 569.118   1
  -7  -3  -2 58.6136 97.1101   1
   7   3   2 15027.8 1232.79   1
  -7   3  -4 11255.1 1197.95   1
   7  -3   5-86.0899 183.678   1
  -7   3  -5 2044.17 494.950   1
  -7   3  -6 1125.21 393.436   1
   7  -3   6 1494.33 491.263   1
   7  -3   7 1350.32 430.794   1
  -7   3  -7 1092.47 363.180   1
  -7   3  -8 4159.01 750.196   1
   7  -3   8 3953.61 789.218   1
   7   4  -4 1062.81 280.309   1
   7   4  -3 887.065 247.296   1
   7   4  -2 1097.33 276.907   1
   7   4  -1 182.708 115.445   1
   7   4   0 290.751 168.183   1
  -7   4  -6 946.830 344.702   1
  -7   4  -7 1924.35 491.369   1
  -7   4  -8 2943.13 609.361   1
   7   5  -4 1359.18 293.054   1
   7   5  -3 23051.3 1204.33   1
   7   5  -2 436.433 183.649   1
   7   6  -4-18.5907 27.9720   1
  -8   0   1-2.22103 19.9494   1
  -8   0   0 149.688 93.3532   1
   8   0   0 55.7546 98.6203   1
  -8   0  -1 84.2594 120.394   1
   8   0   1-9.10438 19.2748   1
   8   0   2 16464.5 1444.76   1
  -8   0  -2 15016.2 1292.53   1
   8   0   3-28.3838 40.0607   1
  -8   0  -3-123.617 133.305   1
  -8   0  -4 521.504 261.298   1
   8   0   4 624.855 298.084   1
   8   0   5 21.8162 92.3736   1
  -8   0  -5 3.02441 69.2584   1
   8   0   6 10240.8 1282.45   1
  -8   0  -6 10681.4 1183.21   1
  -8  -1   3 1536.51 333.246   1
  -8  -1   2 50.0707 78.6877   1
   8   1  -1 28.9528 78.4096   1
  -8  -1   1 1.92806 32.3989   1
   8   1   0 8.04530 45.0640   1
  -8  -1   0 61.7381 75.2829   1
   8   1   1 1206.45 343.574   1
  -8  -1  -1 1265.27 355.064   1
  -8   1  -1 839.105 308.837   1
   8  -1   1 1097.76 387.765   1
   8   1   2 2.93019 93.0521   1
  -8   1  -2 22.0025 74.1102   1
  -8  -1  -2 2.40222 15.2571   1
   8  -1   2-3.33686 63.5798   1
  -8   1  -3 3485.53 671.197   1
  -8  -1  -3 3590.39 607.437   1
   8   1   3 3712.93 673.676   1
   8  -1   3 4485.89 787.976   1
   8  -1   4 1444.71 485.670   1
  -8   1  -4 1373.19 423.181   1
   8   1   4 1241.47 387.251   1
  -8  -1  -4 1469.83 415.241   1
   8  -1   5 9740.14 1241.87   1
   8   1   5 8892.94 1119.04   1
  -8   1  -5 9356.98 1106.74   1
  -8  -1  -5 10180.4 1101.40   1
   8  -1   6 34.7815 73.6356   1
  -8  -1  -6 43.1135 113.430   1
  -8   1  -6-70.9230 104.403   1
   8   1   6-103.957 165.855   1
  -8  -2   5 5276.01 510.245   1
  -8  -2   4 1216.90 256.856   1
  -8  -2   3 7527.25 697.065   1
  -8  -2   2 125.910 101.472   1
   8   2  -2 124.105 116.432   1
   8   2  -1 16607.4 1294.49   1
  -8  -2   1 16195.5 1111.16   1
   8   2   0 610.955 248.411   1
  -8  -2   0 829.730 249.650   1
   8   2   1 17349.0 1387.27   1
  -8  -2  -1 17165.2 1243.62   1
   8   2   2 2281.04 518.419   1
  -8  -2  -2 2264.91 483.234   1
   8   2   3 6718.10 898.461   1
  -8   2  -3 6590.37 911.802   1
  -8  -2  -3 7607.19 875.600   1
   8  -2   3 5966.44 971.438   1
  -8  -2  -4 1587.75 423.734   1
   8   2   4 1238.77 417.391   1
   8  -2   4 1200.08 444.004   1
  -8   2  -4 1410.02 428.266   1
  -8   2  -5 6153.52 943.131   1
   8  -2   5 6070.69 1014.33   1
  -8   2  -6-45.6413 41.4115   1
   8  -2   6 16.6762 26.4788   1
  -8  -3   5-11.0088 31.1396   1
  -8  -3   4 3130.46 390.571   1
  -8  -3   3 1002.54 244.540   1
   8   3  -3 725.132 276.807   1
   8   3  -2 82.1664 90.7546   1
  -8  -3   2 291.684 136.573   1
   8   3  -1 1438.97 377.545   1
  -8  -3   1 1282.62 310.061   1
  -8  -3   0 1542.90 367.084   1
   8   3   0 1571.29 408.544   1
  -8  -3  -1 55.3111 81.9354   1
   8   3   1 17.5834 67.6863   1
  -8  -3  -2 1076.82 330.168   1
   8   3   2 847.794 299.711   1
   8   3   3-72.2482 106.453   1
  -8   3  -5 72.3263 140.065   1
  -8   3  -6 138.963 189.340   1
   8  -3   6-229.860 205.894   1
   8   4  -4 8326.81 822.628   1
   8   4  -3 836.321 230.013   1
  -8  -4   3-24.5535 43.9936   1
   8   4  -2 6726.94 777.964   1
  -8  -4   2-16.6926 14.9933   1
   8   4  -1 5042.19 659.487   1
   8   4   0 12622.4 1100.43   1
   8   4   1 20.5734 61.1141   1
   8   5  -4 5.14598 18.8698   1
   8   5  -3 49.3244 54.4213   1
   8   5  -2 643.833 226.412   1
   8   5  -1-61.6260 76.3486   1
   8   6  -4 1384.42 312.690   1
   8   6  -3 26.2728 52.1779   1
  -9   0   1 14.7792 58.5362   1
  -9   0   0 2058.50 481.559   1
   9   0   0 1798.12 533.788   1
   9   0   1-31.9791 117.264   1
  -9   0  -1 46.6569 90.5751   1
  -9   0  -2 3867.34 708.219   1
   9   0   2 4532.43 798.041   1
   9   0   3-3.77289 53.5821   1
  -9   0  -3-114.184 122.404   1
   9   0   4 7039.62 1079.53   1
  -9   0  -4 6299.60 953.250   1
   9   0   5 100.203 147.641   1
  -9   0  -5-34.7004 76.3459   1
  -9  -1   3 9841.05 899.006   1
  -9  -1   2 2.04234 18.3444   1
   9   1  -1 24053.4 1780.12   1
  -9  -1   1 23209.5 1475.58   1
   9   1   0 14444.2 1390.11   1
  -9  -1   0 12361.6 1137.51   1
   9   1   1 23943.5 1810.81   1
  -9   1  -1 19743.0 1638.26   1
  -9  -1  -1 24844.2 1657.66   1
   9   1   2 30.5595 60.9971   1
  -9  -1  -2 110.187 128.567   1
  -9   1  -2 119.011 151.487   1
   9  -1   2 162.856 182.640   1
   9  -1   3 17843.2 1761.04   1
   9   1   3 18857.0 1681.59   1
  -9   1  -3 17734.5 1548.35   1
  -9  -1  -3 17588.9 1446.90   1
   9  -1   4 13448.3 1516.33   1
   9   1   4 13341.1 1477.09   1
  -9   1  -4 11683.3 1316.01   1
  -9  -1  -4 12210.0 1292.21   1
  -9   1  -5 8713.74 1124.59   1
   9  -1   5 7983.00 1229.24   1
  -9  -2   5 10876.4 786.552   1
  -9  -2   4 3483.14 472.347   1
  -9  -2   3 1349.22 315.115   1
  -9  -2   2-32.6734 66.8600   1
   9   2  -2-2.79094 30.7023   1
  -9  -2   1 35.3859 78.2123   1
   9   2  -1 2.84774 18.0867   1
   9   2   0 1199.35 366.710   1
  -9  -2   0 1258.17 329.160   1
  -9  -2  -1 802.519 288.394   1
   9   2   1 921.063 333.006   1
   9   2   2 3043.46 639.006   1
  -9  -2  -2 2963.93 572.544   1
  -9  -2  -3 130.848 141.341   1
   9  -2   3-172.335 225.646   1
   9   2   3 255.510 189.861   1
  -9   2  -3 239.762 221.689   1
  -9   2  -4 36.2362 82.9802   1
   9   2   4 77.4843 166.887   1
  -9  -2  -4 64.9049 145.745   1
   9  -2   4 61.8411 140.275   1
   9  -2   5 13284.9 1567.32   1
  -9   2  -5 10797.0 1350.28   1
  -9  -3   5 147.996 95.1418   1
  -9  -3   4 132.142 87.0090   1
  -9  -3   3 648.739 217.425   1
   9   3  -3 616.760 262.912   1
   9   3  -2 7963.40 934.880   1
  -9  -3   2 7456.94 752.021   1
   9   3  -1 435.376 175.767   1
  -9  -3   1 604.503 238.565   1
   9   3   0 409.329 225.493   1
  -9  -3   0 588.264 236.186   1
  -9  -3  -1 998.515 338.392   1
   9   3   1 553.314 273.753   1
   9   3   2 11837.2 1278.81   1
  -9  -3  -2 11305.3 1150.05   1
  -9  -3  -3 85.3701 186.231   1
   9   3   3 3.47492 88.2804   1
   9   4  -4-105.988 138.056   1
  -9  -4   4 147.052 111.808   1
   9   4  -3 6415.12 791.909   1
  -9  -4   3 7023.71 694.489   1
   9   4  -2 15070.2 1226.77   1
  -9  -4   2 14507.7 1071.15   1
   9   4  -1 62.1220 117.403   1
  -9  -4   1 73.8831 108.920   1
   9   4   0 2.72645 86.5822   1
  -9  -4   0 36.2365 59.4238   1
   9   4   1 29.5794 37.5734   1
   9   5  -4 2166.68 429.397   1
   9   5  -3 4391.23 637.279   1
   9   5  -2 8942.25 924.586   1
   9   5  -1 7803.49 900.553   1
   9   6  -4-67.2971 74.2830   1
   9   6  -3-21.4567 38.5450   1
  10   0   0-192.186 270.322   1
 -10   0   0 3302.78 654.429   1
 -10   0  -1 3.13514 79.6483   1
  10   0   1 4.07721 51.7908   1
  10   0   2 11817.5 1438.08   1
 -10   0  -2 10942.3 1235.31   1
 -10   0  -3 52.3460 91.3855   1
  10   0   3 26.5480 125.677   1
 -10  -1   2 2048.31 444.154   1
 -10  -1   1 242.040 159.371   1
  10   1  -1 793.232 320.418   1
 -10  -1   0 39.1456 97.2693   1
  10   1   0-11.2099 134.251   1
 -10  -1  -1 82.5442 131.065   1
  10   1   1-30.6575 87.7563   1
  10   1   2 4.00062 91.6133   1
  10  -1   2 63.2140 131.418   1
 -10  -1  -2 3.13949 82.2136   1
 -10   1  -2 3.53988 59.4836   1
 -10  -1  -3 3.36764 113.179   1
 -10   1  -3 7.53143 109.602   1
  10   1   3 12.5766 59.5373   1
  10  -1   3 4.65081 106.503   1
 -10  -2   4 51.6786 40.8080   1
 -10  -2   3 7882.20 816.210   1
 -10  -2   2 1654.18 392.067   1
  10   2  -2 2223.17 555.742   1
  10   2  -1 17106.3 1600.86   1
 -10  -2   1 15338.8 1235.83   1
  10   2   0 48.4449 90.6160   1
 -10  -2   0-7.76946 46.5237   1
  10   2   1 12727.7 1380.58   1
 -10  -2  -1 12217.1 1187.48   1
  10   2   2 15.5578 42.7866   1
 -10  -2  -2 18.7647 59.5897   1
 -10  -2  -3 11900.9 1314.11   1
 -10  -3   5-7.02190 34.5454   1
 -10  -3   4 80.3095 94.0517   1
 -10  -3   3 24.0467 56.3425   1
  10   3  -3-11.9479 88.9819   1
 -10  -3   2 81.4011 114.804   1
  10   3  -2 55.2024 130.663   1
  10   3  -1 15.6417 76.9517   1
 -10  -3   1 21.0095 61.1304   1
  10   3   0 230.818 164.903   1
 -10  -3   0 794.264 297.079   1
 -10  -3  -1 25.4633 47.5424   1
  10   3   1 49.9491 146.854   1
  10   3   2 84.3980 139.967   1
 -10  -3  -2 84.4980 88.8910   1
 -10  -4   4 5903.38 629.700   1
 -10  -4   3 5762.70 676.388   1
  10   4  -3 5512.26 828.887   1
  10   4  -2 5825.19 838.882   1
 -10  -4   2 5499.01 695.610   1
  10   4  -1 2157.88 518.636   1
 -10  -4   1 2359.64 472.270   1
  10   4   0 18959.3 1577.18   1
 -10  -4   0 20697.3 1493.30   1
 -10  -4  -1-132.729 185.754   1
  10   4   1 3339.58 677.140   1
  10   4   2-70.9677 151.901   1
  10   5  -4 4.98591 31.6668   1
  10   5  -3 443.347 236.106   1
  10   5  -2 2573.64 557.838   1
  10   5  -1 50.7067 75.7768   1
  10   5   0-38.1643 122.867   1
  10   6  -3 2.50825 57.4384   1
 -11   0   0 176.730 166.290   1
 -11   0  -1-67.8097 55.5232   1
  11   0   1-9.45055 123.740   1
 -11  -1   2 3992.71 646.371   1
 -11  -1   1 4505.59 764.838   1
 -11  -1   0 1307.20 418.309   1
  11   1   0 1099.42 435.565   1
 -11  -1  -1 655.093 298.657   1
  11   1   1 227.925 257.333   1
 -11  -2   3 1197.34 338.639   1
 -11  -2   2 130.927 139.445   1
 -11  -2   1 71.6479 93.8384   1
  11   2  -1 3.87554 145.622   1
 -11  -2   0 131.826 106.882   1
  11   2   0 483.956 249.093   1
  11   2   1 160.401 195.174   1
 -11  -2  -1 3.19300 95.1196   1
 -11  -3   4 5703.75 662.678   1
 -11  -3   3 949.232 294.600   1
 -11  -3   2 2626.55 527.529   1
  11   3  -2 2900.85 653.795   1
 -11  -3   1 3655.38 617.075   1
  11   3  -1 4339.62 825.001   1
  11   3   0 11348.3 1335.05   1
 -11  -3   0 10697.4 1145.80   1
 -11  -3  -1 1647.21 434.848   1
 -11  -4   4 2406.56 443.275   1
 -11  -4   3 2.05241 36.8697   1
  11   4  -3 3.19460 28.6941   1
 -11  -4   2-23.2708 51.1992   1
  11   4  -2 83.3229 103.703   1
 -11  -4   1 1157.71 371.333   1
  11   4  -1 855.683 379.027   1
  11   4   0 143.107 174.130   1
 -11  -4   0 5.93233 26.6422   1
  11   5  -3 3621.05 665.549   1
  11   5  -2-12.4784 62.6557   1
  11   5  -1 7967.35 1107.37   1
  11   5   0 59.8433 53.1179   1
  11   6  -3-102.073 122.138   1
 -12  -2   3 7746.58 918.844   1
 -12  -2   2 3291.29 643.107   1
  12   2  -1 353.755 237.950   1
 -12  -2   1 451.382 204.483   1
 -12  -3   3 1267.74 367.129   1
 -12  -3   2 4360.27 738.734   1
  12   3  -2 4753.76 926.629   1
 -12  -3   1 1422.85 430.250   1
  12   3  -1 1414.77 551.952   1
 -12  -4   3 171.879 120.026   1
  12   4  -3 14.8264 40.7753   1
 -12  -4   2 4678.17 730.130   1
  12   4  -2 5109.87 948.688   1
  12   5  -3 2992.76 710.754   1
  12   5  -2 232.598 205.765   1
   0   0   0    0.00    0.00   0
TITL slav_p05_s3 in P2(1)/c
REM P2(1)/c (#14 in standard setting)
CELL 0.41106   8.832680   8.795786   6.923081  90.0000  90.0647  90.0000
ZERR    4.00   0.000135   0.001009   0.000159   0.0000   0.0017   0.0000
LATT  1
SYMM -x, y+1/2,-z+1/2
SFAC O Al Si Sr
UNIT 32.00 8.00 8.00 4.00
TREF
HKLF 4
END
;
_shelx_hkl_checksum              65496
loop_
_space_group_symop_operation_xyz
'x, y, z'
'-x, y+1/2, -z+1/2'
'-x, -y, -z'
'x, -y-1/2, z-1/2'
loop_
_atom_site_label
_atom_site_type_symbol
_atom_site_fract_x
_atom_site_fract_y
_atom_site_fract_z
_atom_site_U_iso_or_equiv
_atom_site_adp_type
_atom_site_occupancy
_atom_site_site_symmetry_order
_atom_site_calc_flag
_atom_site_refinement_flags_posn
_atom_site_refinement_flags_adp
_atom_site_refinement_flags_occupancy
_atom_site_disorder_assembly
_atom_site_disorder_group
Sr1 Sr 0.74868(12) 0.6108(3) 0.26925(19) 0.0161(10) Uani 1 1 d . . . . .
Si1 Si 0.5836(3) 0.5448(10) 0.7798(6) 0.008(2) Uani 1 1 d . . . . .
Si2 Si 1.0722(4) 0.7113(10) 0.5000(6) 0.014(3) Uani 1 1 d . . . . .
Al1 Al 0.9132(4) 0.5358(11) 0.8174(6) 0.011(3) Uani 1 1 d . . . . .
Al2 Al 0.4083(4) 0.7648(12) 1.0132(7) 0.018(3) Uani 1 1 d . . . . .
O1 O 0.7354(9) 0.598(2) 0.8915(13) 0.0057(19) Uiso 1 1 d . . . . .
O2 O 0.9511(11) 0.370(3) 0.7099(16) 0.014(2) Uiso 1 1 d . . . . .
O3 O 1.0776(10) 0.895(2) 0.4402(15) 0.009(2) Uiso 1 1 d . . . . .
O4 O 0.4277(10) 0.599(2) 0.8877(14) 0.009(2) Uiso 1 1 d . . . . .
O5 O 0.5791(9) 0.636(2) 0.5788(14) 0.0079(19) Uiso 1 1 d . . . . .
O6 O 1.2337(10) 0.657(2) 0.5800(14) 0.012(2) Uiso 1 1 d . . . . .
O7 O 0.9170(10) 0.657(2) 0.6087(15) 0.013(2) Uiso 1 1 d . . . . .
O8 O 0.5791(10) 0.364(3) 0.7467(15) 0.013(2) Uiso 1 1 d . . . . .
loop_
_atom_site_aniso_label
_atom_site_aniso_U_11
_atom_site_aniso_U_22
_atom_site_aniso_U_33
_atom_site_aniso_U_23
_atom_site_aniso_U_13
_atom_site_aniso_U_12
Sr1 0.0089(6) 0.024(3) 0.0156(8) -0.0004(7) -0.0030(5) -0.0001(6)
Si1 0.0051(14) 0.003(9) 0.016(2) 0.002(2) -0.0024(15) 0.0021(19)
Si2 0.0068(15) 0.023(10) 0.012(2) -0.004(2) -0.0025(15) 0.002(2)
Al1 0.0078(16) 0.013(9) 0.011(2) -0.005(3) -0.0017(15) 0.006(2)
Al2 0.0086(17) 0.030(12) 0.017(3) -0.002(3) -0.0068(18) -0.006(2)
loop_
_atom_type_symbol
_atom_type_description
_atom_type_scat_dispersion_real
_atom_type_scat_dispersion_imag
_atom_type_scat_source
O O 0.0017 0.0018 'International Tables Vol C Tables 4.2.6.8 and 6.1.1.4'
Al Al 0.0192 0.0163 'International Tables Vol C Tables 4.2.6.8 and 6.1.1.4'
Si Si 0.0265 0.0226 'International Tables Vol C Tables 4.2.6.8 and 6.1.1.4'
Sr Sr 0.2429 1.2951 'International Tables Vol C Tables 4.2.6.8 and 6.1.1.4'
loop_
_geom_angle_atom_site_label_1
_geom_angle_atom_site_label_2
_geom_angle_atom_site_label_3
_geom_angle
_geom_angle_site_symmetry_1
_geom_angle_site_symmetry_3
_geom_angle_publ_flag
O6 Sr1 O1 111.5(5) 3_766 1_554 ?
O6 Sr1 O5 77.3(5) 3_766 . ?
O1 Sr1 O5 142.5(3) 1_554 . ?
O6 Sr1 O4 64.2(4) 3_766 3_666 ?
O1 Sr1 O4 62.3(4) 1_554 3_666 ?
O5 Sr1 O4 93.3(4) . 3_666 ?
O6 Sr1 O2 88.6(5) 3_766 3_766 ?
O1 Sr1 O2 95.8(3) 1_554 3_766 ?
O5 Sr1 O2 121.3(3) . 3_766 ?
O4 Sr1 O2 130.7(5) 3_666 3_766 ?
O6 Sr1 O1 137.9(4) 3_766 4_575 ?
O1 Sr1 O1 110.6(3) 1_554 4_575 ?
O5 Sr1 O1 68.9(5) . 4_575 ?
O4 Sr1 O1 139.8(3) 3_666 4_575 ?
O2 Sr1 O1 88.1(5) 3_766 4_575 ?
O6 Sr1 O7 143.6(4) 3_766 4_575 ?
O1 Sr1 O7 69.7(4) 1_554 4_575 ?
O5 Sr1 O7 125.1(5) . 4_575 ?
O4 Sr1 O7 131.8(3) 3_666 4_575 ?
O2 Sr1 O7 55.8(5) 3_766 4_575 ?
O1 Sr1 O7 56.5(4) 4_575 4_575 ?
O6 Sr1 O7 76.3(5) 3_766 . ?
O1 Sr1 O7 149.8(3) 1_554 . ?
O5 Sr1 O7 66.8(3) . . ?
O4 Sr1 O7 139.1(5) 3_666 . ?
O2 Sr1 O7 54.5(3) 3_766 . ?
O1 Sr1 O7 67.9(5) 4_575 . ?
O7 Sr1 O7 86.8(3) 4_575 . ?
O6 Sr1 O3 64.2(4) 3_766 2_745 ?
O1 Sr1 O3 59.0(4) 1_554 2_745 ?
O5 Sr1 O3 141.5(5) . 2_745 ?
O4 Sr1 O3 69.1(4) 3_666 2_745 ?
O2 Sr1 O3 62.0(5) 3_766 2_745 ?
O1 Sr1 O3 144.8(4) 4_575 2_745 ?
O7 Sr1 O3 89.8(5) 4_575 2_745 ?
O7 Sr1 O3 103.8(4) . 2_745 ?
O6 Sr1 O8 98.2(5) 3_766 3_666 ?
O1 Sr1 O8 85.5(3) 1_554 3_666 ?
O5 Sr1 O8 57.0(3) . 3_666 ?
O4 Sr1 O8 56.6(5) 3_666 3_666 ?
O2 Sr1 O8 172.0(7) 3_766 3_666 ?
O1 Sr1 O8 84.1(4) 4_575 3_666 ?
O7 Sr1 O8 117.8(5) 4_575 3_666 ?
O7 Sr1 O8 123.2(3) . 3_666 ?
O3 Sr1 O8 124.7(4) 2_745 3_666 ?
O6 Sr1 O5 152.7(3) 3_766 4_575 ?
O1 Sr1 O5 64.5(4) 1_554 4_575 ?
O5 Sr1 O5 90.7(3) . 4_575 ?
O4 Sr1 O5 92.5(4) 3_666 4_575 ?
O2 Sr1 O5 118.4(5) 3_766 4_575 ?
O1 Sr1 O5 53.8(3) 4_575 4_575 ?
O7 Sr1 O5 62.7(3) 4_575 4_575 ?
O7 Sr1 O5 121.7(5) . 4_575 ?
O3 Sr1 O5 122.9(3) 2_745 4_575 ?
O8 Sr1 O5 55.2(4) 3_666 4_575 ?
O6 Sr1 Si1 73.3(2) 3_766 3_666 ?
O1 Sr1 Si1 80.7(2) 1_554 3_666 ?
O5 Sr1 Si1 66.7(3) . 3_666 ?
O4 Sr1 Si1 30.0(3) 3_666 3_666 ?
O2 Sr1 Si1 158.5(5) 3_766 3_666 ?
O1 Sr1 Si1 113.1(2) 4_575 3_666 ?
O7 Sr1 Si1 139.0(2) 4_575 3_666 ?
O7 Sr1 Si1 128.6(3) . 3_666 ?
O3 Sr1 Si1 98.9(3) 2_745 3_666 ?
O8 Sr1 Si1 29.5(4) 3_666 3_666 ?
O5 Sr1 Si1 79.4(3) 4_575 3_666 ?
O8 Si1 O5 111.6(8) . . ?
O8 Si1 O1 112.1(7) . . ?
O5 Si1 O1 106.9(7) . . ?
O8 Si1 O4 109.3(8) . . ?
O5 Si1 O4 103.4(7) . . ?
O1 Si1 O4 113.3(6) . . ?
O8 Si1 Sr1 63.0(4) . 3_666 ?
O5 Si1 Sr1 95.6(4) . 3_666 ?
O1 Si1 Sr1 156.8(4) . 3_666 ?
O4 Si1 Sr1 53.9(5) . 3_666 ?
O8 Si1 Sr1 154.0(4) . 4_576 ?
O5 Si1 Sr1 62.8(6) . 4_576 ?
O1 Si1 Sr1 52.4(6) . 4_576 ?
O4 Si1 Sr1 96.5(7) . 4_576 ?
Sr1 Si1 Sr1 140.1(2) 3_666 4_576 ?
O8 Si1 Sr1 107.1(4) . 1_556 ?
O5 Si1 Sr1 135.9(6) . 1_556 ?
O1 Si1 Sr1 36.7(4) . 1_556 ?
O4 Si1 Sr1 82.4(3) . 1_556 ?
Sr1 Si1 Sr1 120.74(13) 3_666 1_556 ?
Sr1 Si1 Sr1 73.18(12) 4_576 1_556 ?
O6 Si2 O2 106.8(7) . 3_766 ?
O6 Si2 O7 120.1(7) . . ?
O2 Si2 O7 100.2(7) 3_766 . ?
O6 Si2 O3 110.3(8) . . ?
O2 Si2 O3 102.0(9) 3_766 . ?
O7 Si2 O3 114.8(9) . . ?
O6 Si2 Al1 143.5(7) . 4_575 ?
O2 Si2 Al1 83.6(8) 3_766 4_575 ?
O7 Si2 Al1 91.0(6) . 4_575 ?
O3 Si2 Al1 33.7(3) . 4_575 ?
O6 Si2 Sr1 146.7(8) . . ?
O2 Si2 Sr1 50.3(4) 3_766 . ?
O7 Si2 Sr1 55.6(4) . . ?
O3 Si2 Sr1 99.2(3) . . ?
Al1 Si2 Sr1 65.76(15) 4_575 . ?
O6 Si2 Sr1 39.3(7) . 3_766 ?
O2 Si2 Sr1 96.0(8) 3_766 3_766 ?
O7 Si2 Sr1 86.3(7) . 3_766 ?
O3 Si2 Sr1 148.8(4) . 3_766 ?
Al1 Si2 Sr1 177.2(2) 4_575 3_766 ?
Sr1 Si2 Sr1 111.8(2) . 3_766 ?
O6 Si2 Sr1 129.1(4) . 4_576 ?
O2 Si2 Sr1 121.9(4) 3_766 4_576 ?
O7 Si2 Sr1 41.7(7) . 4_576 ?
O3 Si2 Sr1 75.0(4) . 4_576 ?
Al1 Si2 Sr1 62.05(15) 4_575 4_576 ?
Sr1 Si2 Sr1 72.60(8) . 4_576 ?
Sr1 Si2 Sr1 116.10(13) 3_766 4_576 ?
O2 Al1 O1 125.9(8) . . ?
O2 Al1 O3 110.1(6) . 4_576 ?
O1 Al1 O3 119.1(7) . 4_576 ?
O2 Al1 O7 99.0(8) . . ?
O1 Al1 O7 93.9(7) . . ?
O3 Al1 O7 99.5(7) 4_576 . ?
O2 Al1 O3 80.4(9) . 2_746 ?
O1 Al1 O3 89.1(6) . 2_746 ?
O3 Al1 O3 77.7(7) 4_576 2_746 ?
O7 Al1 O3 176.7(4) . 2_746 ?
O2 Al1 Si2 139.6(4) . 4_576 ?
O1 Al1 Si2 93.8(6) . 4_576 ?
O3 Al1 Si2 31.3(6) 4_576 4_576 ?
O7 Al1 Si2 83.4(6) . 4_576 ?
O3 Al1 Si2 94.8(4) 2_746 4_576 ?
O2 Al1 Sr1 53.0(4) . 3_766 ?
O1 Al1 Sr1 172.2(5) . 3_766 ?
O3 Al1 Sr1 59.0(5) 4_576 3_766 ?
O7 Al1 Sr1 93.9(4) . 3_766 ?
O3 Al1 Sr1 83.1(4) 2_746 3_766 ?
Si2 Al1 Sr1 86.65(14) 4_576 3_766 ?
O2 Al1 Sr1 145.9(5) . 4_576 ?
O1 Al1 Sr1 50.5(6) . 4_576 ?
O3 Al1 Sr1 94.7(6) 4_576 4_576 ?
O7 Al1 Sr1 52.7(6) . 4_576 ?
O3 Al1 Sr1 128.9(5) 2_746 4_576 ?
Si2 Al1 Sr1 63.7(2) 4_576 4_576 ?
Sr1 Al1 Sr1 135.6(2) 3_766 4_576 ?
O2 Al1 Sr1 130.1(7) . 1_556 ?
O1 Al1 Sr1 45.9(3) . 1_556 ?
O3 Al1 Sr1 81.3(4) 4_576 1_556 ?
O7 Al1 Sr1 127.7(6) . 1_556 ?
O3 Al1 Sr1 53.9(4) 2_746 1_556 ?
Si2 Al1 Sr1 70.75(15) 4_576 1_556 ?
Sr1 Al1 Sr1 127.52(14) 3_766 1_556 ?
Sr1 Al1 Sr1 75.05(14) 4_576 1_556 ?
O4 Al2 O6 123.9(7) . 4_476 ?
O4 Al2 O5 117.3(6) . 4_576 ?
O6 Al2 O5 118.8(9) 4_476 4_576 ?
O4 Al2 O8 84.9(7) . 2_656 ?
O6 Al2 O8 96.7(6) 4_476 2_656 ?
O5 Al2 O8 88.1(6) 4_576 2_656 ?
O4 Al2 O8 86.1(8) . 3_667 ?
O6 Al2 O8 92.9(6) 4_476 3_667 ?
O5 Al2 O8 91.2(6) 4_576 3_667 ?
O8 Al2 O8 169.4(6) 2_656 3_667 ?
O4 Al2 Sr1 86.4(4) . 4_576 ?
O6 Al2 Sr1 137.5(8) 4_476 4_576 ?
O5 Al2 Sr1 43.5(3) 4_576 4_576 ?
O8 Al2 Sr1 53.3(3) 2_656 4_576 ?
O8 Al2 Sr1 120.6(3) 3_667 4_576 ?
O4 Al2 Sr1 163.0(3) . 2_656 ?
O6 Al2 Sr1 39.9(6) 4_476 2_656 ?
O5 Al2 Sr1 79.1(6) 4_576 2_656 ?
O8 Al2 Sr1 91.6(6) 2_656 2_656 ?
O8 Al2 Sr1 98.6(6) 3_667 2_656 ?
Sr1 Al2 Sr1 104.8(2) 4_576 2_656 ?
O4 Al2 Sr1 81.4(4) . 1_556 ?
O6 Al2 Sr1 136.4(4) 4_476 1_556 ?
O5 Al2 Sr1 52.0(5) 4_576 1_556 ?
O8 Al2 Sr1 122.5(3) 2_656 1_556 ?
O8 Al2 Sr1 50.3(3) 3_667 1_556 ?
Sr1 Al2 Sr1 70.30(8) 4_576 1_556 ?
Sr1 Al2 Sr1 114.17(15) 2_656 1_556 ?
Si1 O1 Al1 121.1(8) . . ?
Si1 O1 Sr1 121.7(5) . 1_556 ?
Al1 O1 Sr1 105.6(4) . 1_556 ?
Si1 O1 Sr1 99.3(6) . 4_576 ?
Al1 O1 Sr1 99.6(6) . 4_576 ?
Sr1 O1 Sr1 105.7(5) 1_556 4_576 ?
Si2 O2 Al1 138.9(12) 3_766 . ?
Si2 O2 Sr1 101.6(5) 3_766 3_766 ?
Al1 O2 Sr1 96.9(7) . 3_766 ?
Si2 O3 Al1 115.0(8) . 4_575 ?
Si2 O3 Al1 112.1(6) . 2_756 ?
Al1 O3 Al1 102.3(7) 4_575 2_756 ?
Si2 O3 Sr1 142.1(6) . 2_755 ?
Al1 O3 Sr1 88.3(6) 4_575 2_755 ?
Al1 O3 Sr1 89.7(6) 2_756 2_755 ?
Si1 O4 Al2 124.4(9) . . ?
Si1 O4 Sr1 96.1(7) . 3_666 ?
Al2 O4 Sr1 138.1(5) . 3_666 ?
Si1 O5 Al2 118.7(6) . 4_575 ?
Si1 O5 Sr1 130.7(8) . . ?
Al2 O5 Sr1 108.2(5) 4_575 . ?
Si1 O5 Sr1 88.7(5) . 4_576 ?
Al2 O5 Sr1 99.7(8) 4_575 4_576 ?
Sr1 O5 Sr1 97.8(4) . 4_576 ?
Si2 O6 Al2 125.3(11) . 4_675 ?
Si2 O6 Sr1 117.6(8) . 3_766 ?
Al2 O6 Sr1 114.3(7) 4_675 3_766 ?
Si2 O7 Al1 124.0(7) . . ?
Si2 O7 Sr1 115.0(11) . 4_576 ?
Al1 O7 Sr1 96.0(5) . 4_576 ?
Si2 O7 Sr1 95.8(5) . . ?
Al1 O7 Sr1 125.1(8) . . ?
Sr1 O7 Sr1 99.2(4) 4_576 . ?
Si1 O8 Al2 124.0(9) . 2_646 ?
Si1 O8 Al2 116.0(7) . 3_667 ?
Al2 O8 Al2 119.4(11) 2_646 3_667 ?
Si1 O8 Sr1 87.5(6) . 3_666 ?
Al2 O8 Sr1 93.2(4) 2_646 3_666 ?
Al2 O8 Sr1 97.3(4) 3_667 3_666 ?
loop_
_geom_bond_atom_site_label_1
_geom_bond_atom_site_label_2
_geom_bond_distance
_geom_bond_site_symmetry_2
_geom_bond_publ_flag
Sr1 O6 2.584(19) 3_766 ?
Sr1 O1 2.620(9) 1_554 ?
Sr1 O5 2.625(10) . ?
Sr1 O4 2.646(15) 3_666 ?
Sr1 O2 2.661(9) 3_766 ?
Sr1 O1 2.700(17) 4_575 ?
Sr1 O7 2.759(17) 4_575 ?
Sr1 O7 2.810(10) . ?
Sr1 O3 2.838(15) 2_745 ?
Sr1 O8 2.905(9) 3_666 ?
Sr1 O5 2.991(15) 4_575 ?
Sr1 Si1 3.256(5) 3_666 ?
Si1 O8 1.60(2) . ?
Si1 O5 1.606(13) . ?
Si1 O1 1.616(10) . ?
Si1 O4 1.638(11) . ?
Si2 O6 1.602(10) . ?
Si2 O2 1.633(15) 3_766 ?
Si2 O7 1.635(12) . ?
Si2 O3 1.672(19) . ?
Si2 Al1 2.918(10) 4_575 ?
Al1 O2 1.67(2) . ?
Al1 O1 1.741(11) . ?
Al1 O3 1.787(11) 4_576 ?
Al1 O7 1.797(17) . ?
Al1 O3 2.085(16) 2_746 ?
Al2 O4 1.708(19) . ?
Al2 O6 1.750(13) 4_476 ?
Al2 O5 1.802(13) 4_576 ?
Al2 O8 2.005(15) 2_656 ?
Al2 O8 2.017(17) 3_667 ?
