#------------------------------------------------------------------------------
#$Date: 2021-07-04 04:49:46 +0300 (Sun, 04 Jul 2021) $
#$Revision: 266973 $
#$URL: file:///home/coder/svn-repositories/cod/cif/1/56/31/1563156.cif $
#------------------------------------------------------------------------------
#
# This file is available in the Crystallography Open Database (COD),
# http://www.crystallography.net/
#
# All data on this site have been placed in the public domain by the
# contributors.
#
data_1563156
loop_
_publ_author_name
'Gorelova, Liudmila A.'
'Pakhomova, Anna S.'
'Krzhizhanovskaya, Maria G.'
'Pankin, Dmitrii V.'
'Krivovichev, Sergey V.'
'Dubrovinsky, Leonid S.'
'Kasatkin, Anatoly V.'
_publ_section_title
;
 Crystal Structure Evolution of Slawsonite SrAl2Si2O8 and Paracelsian
 BaAl2Si2O8 upon Compression and Decompression
;
_journal_issue                   23
_journal_name_full               'The Journal of Physical Chemistry C'
_journal_page_first              13014
_journal_page_last               13023
_journal_paper_doi               10.1021/acs.jpcc.1c02949
_journal_volume                  125
_journal_year                    2021
_chemical_formula_sum            'Al2 O8 Si2 Sr'
_chemical_formula_weight         325.76
_space_group_crystal_system      monoclinic
_space_group_IT_number           14
_space_group_name_Hall           '-P 2ybc'
_space_group_name_H-M_alt        'P 1 21/c 1'
_audit_creation_method           SHELXL-2018/3
_cell_angle_alpha                90
_cell_angle_beta                 90.452(4)
_cell_angle_gamma                90
_cell_formula_units_Z            4
_cell_length_a                   8.8562(3)
_cell_length_b                   8.672(3)
_cell_length_c                   6.6496(5)
_cell_measurement_reflns_used    702
_cell_measurement_temperature    293(2)
_cell_measurement_theta_max      19.202
_cell_measurement_theta_min      2.606
_cell_volume                     510.68(18)
_computing_structure_refinement  'SHELXL-2018/3 (Sheldrick, 2018)'
_diffrn_ambient_temperature      293(2)
_diffrn_measured_fraction_theta_full 0.351
_diffrn_measured_fraction_theta_max 0.194
_diffrn_measurement_device_type
'esperanto-CrysAlisPro-abstract goniometer imported esperanto images'
_diffrn_radiation_type           synchrotron
_diffrn_radiation_wavelength     0.41106
_diffrn_reflns_av_R_equivalents  0.0219
_diffrn_reflns_av_unetI/netI     0.0447
_diffrn_reflns_Laue_measured_fraction_full 0.351
_diffrn_reflns_Laue_measured_fraction_max 0.194
_diffrn_reflns_limit_h_max       13
_diffrn_reflns_limit_h_min       -12
_diffrn_reflns_limit_k_max       6
_diffrn_reflns_limit_k_min       -4
_diffrn_reflns_limit_l_max       8
_diffrn_reflns_limit_l_min       -9
_diffrn_reflns_number            702
_diffrn_reflns_point_group_measured_fraction_full 0.351
_diffrn_reflns_point_group_measured_fraction_max 0.194
_diffrn_reflns_theta_full        14.279
_diffrn_reflns_theta_max         19.202
_diffrn_reflns_theta_min         2.606
_exptl_absorpt_coefficient_mu    2.662
_exptl_crystal_colour            colorless
_exptl_crystal_density_diffrn    4.237
_exptl_crystal_density_meas      ?
_exptl_crystal_density_method    none
_exptl_crystal_description       isosymmetric
_exptl_crystal_F_000             624
_exptl_crystal_size_max          0.010
_exptl_crystal_size_mid          0.010
_exptl_crystal_size_min          0.005
_refine_diff_density_max         0.754
_refine_diff_density_min         -1.277
_refine_diff_density_rms         0.202
_refine_ls_extinction_method     none
_refine_ls_goodness_of_fit_ref   1.093
_refine_ls_hydrogen_treatment    undef
_refine_ls_matrix_type           full
_refine_ls_number_parameters     78
_refine_ls_number_reflns         425
_refine_ls_number_restraints     0
_refine_ls_restrained_S_all      1.093
_refine_ls_R_factor_all          0.0836
_refine_ls_R_factor_gt           0.0676
_refine_ls_shift/su_max          0.000
_refine_ls_shift/su_mean         0.000
_refine_ls_structure_factor_coef Fsqd
_refine_ls_weighting_details
'w=1/[\s^2^(Fo^2^)+(0.0935P)^2^+13.3960P] where P=(Fo^2^+2Fc^2^)/3'
_refine_ls_weighting_scheme      calc
_refine_ls_wR_factor_gt          0.1750
_refine_ls_wR_factor_ref         0.1933
_reflns_Friedel_coverage         0.000
_reflns_number_gt                340
_reflns_number_total             425
_reflns_threshold_expression     'I > 2\s(I)'
_cod_data_source_file            slav_p07.cif
_cod_data_source_block           shelx
_cod_depositor_comments
;
The following automatic conversions were performed:

data item '_exptl_crystal_density_meas' value 'none' was changed to
'?' -- the value is perceived as not measured.

Automatic conversion script
Id: cif_fix_values 7556 2019-12-06 15:28:31Z antanas 

 Adding full bibliography for 1563145--1563156.cif.
;
_cod_original_cell_volume        510.68(17)
_cod_original_sg_symbol_H-M      'P 21/c'
_cod_database_code               1563156
_shelx_shelxl_version_number     2018/3
_shelx_space_group_comment
;
The symmetry employed for this shelxl refinement is uniquely defined
by the following loop, which should always be used as a source of
symmetry information in preference to the above space-group names.
They are only intended as comments.
;
_shelx_res_file
;
TITL slav_p07_s1 in P2(1)/c
    shelx.res
    created by SHELXL-2018/3 at 14:47:07 on 20-Jan-2021
REM P2(1)/c (#14 in standard setting)
CELL 0.41106   8.856163   8.671999   6.649598  90.0000  90.4519  90.0000
ZERR    4.00   0.000311   0.002777   0.000503   0.0000   0.0038   0.0000
LATT  1
SYMM -x, y+1/2,-z+1/2
SFAC O AL SI SR
DISP O 0.00165 0.00179 4.1539
DISP Si 0.026465 0.022605 52.36784
DISP Al 0.019188 0.016298 37.75624
DISP Sr 0.242892 1.295112 3000.317
UNIT 32.00 8.00 8.00 4.00

OMIT    -9   5   1
OMIT    -8   2   5
OMIT 3 4 8

L.S. 20
BOND
ACTA
LIST 10
FMAP 2
PLAN 20
REM EXTI    0.005722
WGHT    0.093500   13.396000
FVAR       2.56853
SR1   4    0.751219    0.611671    0.270248    11.00000    0.01161    0.03099 =
         0.03538   -0.00081   -0.00440   -0.00056
SI1   3    0.584946    0.544296    0.780448    11.00000    0.00769    0.06214 =
         0.02753   -0.00472   -0.00400    0.00158
SI2   3    1.074926    0.723006    0.513147    11.00000    0.00572    0.07830 =
         0.02370   -0.00403   -0.00221    0.00138
AL1   2    0.911547    0.528969    0.814241    11.00000    0.00830    0.05696 =
         0.02556    0.00022   -0.00233    0.00099
AL2   2    0.407860    0.764611    1.013396    11.00000    0.00777    0.08370 =
         0.03422   -0.00304   -0.00517    0.00124
O1    1    0.737664    0.606512    0.893240    11.00000    0.01653
O2    1    0.942805    0.349969    0.725814    11.00000    0.01979
O3    1    1.080644    0.906288    0.431696    11.00000    0.02075
O4    1    0.428007    0.595716    0.884117    11.00000    0.01892
O5    1    0.582496    0.636124    0.568110    11.00000    0.02041
O6    1    1.235142    0.651990    0.569694    11.00000    0.01675
O7    1    0.917911    0.639189    0.591753    11.00000    0.01859
O8    1    0.584973    0.359959    0.747215    11.00000    0.02369
HKLF 4




REM  slav_p07_s1 in P2(1)/c
REM wR2 = 0.1933, GooF = S = 1.093, Restrained GooF = 1.093 for all data
REM R1 = 0.0676 for 340 Fo > 4sig(Fo) and 0.0836 for all 425 data
REM 78 parameters refined using 0 restraints

END

WGHT      0.0956     13.0007

REM Highest difference peak  0.754,  deepest hole -1.277,  1-sigma level  0.202
Q1    1   0.8285  0.6436  0.7701  11.00000  0.05    0.75
Q2    1   0.8166  0.5765  0.3953  11.00000  0.05    0.74
Q3    1   1.2516  0.8990  0.3782  11.00000  0.05    0.65
Q4    1   0.6742  0.5320  0.7623  11.00000  0.05    0.63
Q5    1   0.9948  0.7651  0.6013  11.00000  0.05    0.62
Q6    1   0.8312  0.5999  0.1905  11.00000  0.05    0.61
Q7    1   0.9982  0.5645  0.4488  11.00000  0.05    0.60
Q8    1   0.8775  0.2765  0.8343  11.00000  0.05    0.60
Q9    1   1.2571  0.6085  0.6206  11.00000  0.05    0.59
Q10   1   0.7334  0.6799  0.6207  11.00000  0.05    0.59
Q11   1   0.6909  0.6364  0.1281  11.00000  0.05    0.58
Q12   1   1.0561  0.5615  0.6083  11.00000  0.05    0.57
Q13   1   0.6577  0.6114  0.3612  11.00000  0.05    0.57
Q14   1   0.9949  0.6118  0.6806  11.00000  0.05    0.57
Q15   1   0.4547  0.5192  0.7777  11.00000  0.05    0.56
Q16   1   0.7377  0.3779  0.8062  11.00000  0.05    0.56
Q17   1   0.6486  0.3700  0.6761  11.00000  0.05    0.56
Q18   1   0.8142  0.6533  0.4504  11.00000  0.05    0.55
Q19   1   0.7762  0.5658  0.5897  11.00000  0.05    0.55
Q20   1   0.5201  0.7278  0.9482  11.00000  0.05    0.55
;
_shelx_res_checksum              74621
_shelx_hkl_file
;
   0  -1  -3 7506.61 371.104   1
   0  -1  -4 32186.1 904.261   1
   0  -1  -5 329.894 108.900   1
   0  -1  -6 502.996 135.531   1
   0   2   3 256891. 2035.30   1
   0   2   4 5047.26 377.420   1
   0  -2  -6 2407.97 281.839   1
   0  -2  -7 2426.66 309.131   1
   0   3   4 9712.90 471.736   1
   0   3   5 15269.1 685.918   1
   0   4   5 1621.47 200.571   1
   0   4   6 38480.3 1104.15   1
   0   5   6 93.9141 56.6925   1
   1   0   1 5.08450 36.0585   1
  -1   0  -1-5.80054 6.72562   1
  -1   0  -2 9175.67 480.479   1
  -1   0  -3 70.3486 67.1554   1
   1   1   1 11459.4 454.229   1
   1   1   2 74919.5 1239.89   1
  -1  -1  -2 75015.4 1277.77   1
   1   1   3 7630.11 484.119   1
  -1  -1  -3 7748.67 462.537   1
  -1  -1  -4 600.564 130.740   1
  -1  -1  -5 9946.17 647.506   1
  -1  -1  -6 4583.21 464.311   1
  -1  -1  -7 337.887 148.557   1
   1  -2  -7 730.806 143.283   1
   1  -2  -6 981.000 141.255   1
   1  -2  -5 1941.58 179.864   1
   1   2   3 10188.8 521.699   1
   1   2   4 3365.04 360.098   1
  -1  -2  -4 3767.59 358.846   1
   1   2   5 1996.58 353.447   1
  -1  -2  -5 4121.34 396.492   1
  -1  -2  -6-23.0715 28.2545   1
  -1  -2  -7 3831.82 421.322   1
  -1  -2  -8-148.819 136.467   1
   1   3   4 44497.9 1214.31   1
   1   3   5 2364.05 304.545   1
   1   3   6 254.943 112.886   1
  -1   4   5-22.3264 24.9153   1
   1   4   5 962.536 195.412   1
   1   4   6 3648.76 384.072   1
   1   5   6 233.026 93.6497   1
   1   5   7 1934.92 282.571   1
  -2   0   0 900.088 126.580   1
   2   0   0 820.412 125.501   1
  -2   0  -1 41.7491 48.5134   1
   2   0   1-5.89427 27.6478   1
  -2   0  -2 49320.1 1295.69   1
   2   0   2 49795.8 1319.10   1
   2   0   3-31.8096 66.0897   1
  -2   0  -3-14.4802 26.4947   1
  -2   0  -4 1637.01 300.493   1
  -2   0  -5 94.0399 107.532   1
  -2   1   1 696.400 91.1659   1
   2  -1  -1 575.723 93.4892   1
   2  -1   0 207.654 62.0166   1
  -2   1   0 183.784 58.1222   1
   2   1   1 4057.23 334.417   1
  -2  -1  -1 4219.81 349.327   1
  -2   1  -1 3926.86 354.402   1
  -2  -1  -2 5040.48 410.256   1
   2   1   2 4727.33 386.690   1
  -2  -1  -3 20491.6 875.408   1
   2   1   3 19998.6 884.741   1
  -2  -1  -4 197.821 101.174   1
   2   1   4 266.367 133.317   1
  -2  -1  -5 34780.4 1321.73   1
  -2  -1  -6 1660.88 320.002   1
  -2  -1  -7 8295.04 720.659   1
   2  -2  -7 833.203 124.421   1
   2   2   3 37272.6 1179.34   1
  -2  -2  -3 37060.1 1241.08   1
  -2  -2  -4 2023.65 301.035   1
   2   2   4 2407.16 320.506   1
   2   2   5 15251.5 882.394   1
  -2  -2  -5 16004.1 887.329   1
  -2  -2  -6 220.280 94.2485   1
  -2  -2  -7 178.222 120.926   1
  -2  -2  -8 1949.59 363.648   1
   2   3   4 496.153 156.702   1
   2   3   5 106.628 90.6396   1
   2   3   6 78.7726 87.2509   1
  -2  -3  -7-92.8634 74.4868   1
   2   4   5 559.099 167.703   1
   2   4   6 1550.83 278.490   1
   2   4   7-82.1197 57.0439   1
   2   5   6 3903.18 458.696   1
   2   5   7 579.126 151.693   1
  -3   0   0 1722.29 221.939   1
   3   0   0 1440.43 199.286   1
   3   0   1-5.34876 31.0103   1
  -3   0  -1-14.4808 51.6000   1
   3   0   2 53746.1 1573.27   1
  -3   0  -2 53543.7 1512.77   1
   3   0   3-82.7211 117.987   1
  -3   0  -3 1.23737 50.3833   1
   3   0   4 12439.0 904.988   1
  -3   0  -4 11661.4 845.753   1
  -3   0  -5 53.8658 97.4952   1
  -3   0  -6 30.3381 75.2989   1
   3  -1  -2 5836.15 340.243   1
   3  -1  -1 178351. 2082.25   1
  -3   1   1 177844. 2136.31   1
  -3   1   0 153333. 2176.40   1
   3  -1   0 152888. 2261.91   1
   3   1   1 174010. 2570.27   1
  -3  -1  -1 173385. 2669.38   1
  -3   1  -1 172931. 2637.24   1
   3  -1   1 173831. 2694.10   1
  -3   1  -2 8678.95 669.741   1
  -3  -1  -2 9715.53 641.711   1
   3   1   2 8929.59 609.683   1
   3  -1   2 8731.96 693.334   1
  -3  -1  -3 111630. 2339.59   1
   3   1   3 110742. 2356.22   1
   3   1   4 64501.7 1965.84   1
  -3  -1  -4 65110.6 1888.73   1
   3   1   5 23271.1 1268.95   1
  -3  -1  -5 23256.0 1194.59   1
  -3  -1  -6-215.684 166.096   1
  -3  -1  -7 305.249 103.985   1
  -3  -1  -8 8185.73 821.311   1
   3  -2  -2 368.931 103.572   1
  -3   2   2 243.675 76.3166   1
  -3   2   1 14071.4 644.342   1
  -3   2   0 964.497 185.514   1
   3   2   2 1257.89 243.367   1
  -3  -2  -3 7485.29 633.766   1
   3   2   3 7535.37 609.543   1
   3   2   4 9165.35 708.115   1
  -3  -2  -4 9553.62 727.381   1
  -3  -2  -5 60432.0 1927.72   1
   3   2   5 62920.0 2002.21   1
   3   2   6 886.812 289.745   1
  -3  -2  -6 202.932 48.0392   1
  -3  -2  -7 2650.90 409.128   1
  -3  -2  -8 389.160 129.362   1
  -3   3   3 1114.21 148.523   1
   3   3   4 292.407 156.966   1
   3   3   5 14621.1 953.722   1
   3   3   6 24244.1 1297.56   1
  -3  -3  -6 24766.3 1338.33   1
  -3  -3  -7 4241.86 526.364   1
   3   3   7 4994.76 595.915   1
  -3  -3  -8 333.499 141.333   1
   3   4   5 3071.25 457.069   1
   3   4   6 18520.3 1139.41   1
   3   4   7 5779.29 648.081   1
   3   4   8 1331.61 323.870   1
   3   5   7 687.109 231.766   1
   4   0  -1-25.5850 60.3618   1
   4   0   0 7896.28 573.395   1
  -4   0   0 8265.92 594.793   1
  -4   0  -1 107.153 102.056   1
   4   0   1-1.15161 56.0285   1
  -4   0  -2 58822.0 1813.91   1
   4   0   2 60395.9 1871.41   1
   4   0   3-11.1758 67.6668   1
  -4   0  -3-120.043 98.2903   1
   4   0   4 6455.18 695.738   1
  -4   0  -4 5187.33 601.521   1
  -4   0  -5 36.0964 95.8254   1
  -4   0  -6 7730.41 822.014   1
   4  -1  -2 3079.21 311.282   1
   4  -1  -1 51.9587 22.0339   1
  -4   1   1 40.3116 48.2959   1
  -4   1   0 254.386 94.4812   1
   4  -1   0 345.863 135.894   1
   4   1   1 3960.79 445.535   1
   4  -1   1 3963.73 452.480   1
  -4   1  -1 3916.29 435.545   1
  -4  -1  -1 4130.45 455.337   1
   4   1   2 2093.57 342.145   1
  -4   1  -2 2038.55 349.480   1
  -4  -1  -2 2370.35 362.476   1
   4  -1   2 1929.16 370.114   1
  -4  -1  -3 6535.23 642.804   1
   4   1   3 5980.13 635.199   1
  -4   1  -3 6259.46 659.869   1
   4  -1   3 6349.91 681.444   1
  -4  -1  -4 8738.73 793.149   1
  -4   1  -4 8378.82 804.211   1
   4   1   4 9018.43 788.382   1
  -4  -1  -5 3782.99 538.246   1
   4   1   5 3247.77 506.698   1
  -4  -1  -6 2497.18 440.483   1
   4   1   6 1354.74 368.274   1
  -4  -1  -7 5449.43 671.915   1
  -4  -1  -8 203.058 88.2249   1
   4  -2  -4 770.344 127.911   1
   4  -2  -3 55167.8 1147.64   1
  -4   2   2 12787.2 638.281   1
   4  -2  -2 14018.1 653.791   1
  -4   2   1 73254.3 1628.31   1
   4  -2  -1 73241.6 1716.56   1
  -4   2   0 728.266 198.943   1
   4  -2   0 787.539 204.093   1
  -4   2  -1 57320.8 1798.63   1
   4   2   2 2293.55 393.962   1
   4   2   3 35276.3 1446.56   1
  -4  -2  -3 36003.7 1535.61   1
  -4  -2  -4 7004.29 707.144   1
   4   2   4 7275.15 703.727   1
   4   2   5 12670.7 1007.57   1
  -4  -2  -5 13962.3 1041.70   1
  -4  -2  -6 424.160 208.578   1
   4   2   6 410.611 155.972   1
   4   2   7 2563.97 497.585   1
  -4  -2  -7 3629.74 548.570   1
  -4  -2  -8 256.517 171.649   1
  -4   3   3 58.1103 37.6771   1
  -4   3   2 95.5509 63.1763   1
  -4   3   1 2074.31 301.051   1
   4   3   4 9809.29 833.903   1
   4   3   5 106.322 57.9442   1
   4   3   6 2403.53 436.763   1
  -4  -3  -6 2405.55 440.830   1
   4   3   7 3220.60 572.776   1
  -4  -3  -7 3932.42 584.895   1
  -4  -3  -8 1860.55 379.331   1
   4   4   5 6096.72 676.853   1
   4   4   6 177.660 137.666   1
   4   4   7 388.601 166.952   1
   4   4   8 1058.30 238.930   1
  -4   5   4 3400.64 296.707   1
   4   5   7 3472.04 555.732   1
   5   0  -1-1.20999 24.5649   1
  -5   0   0 2683.59 368.389   1
   5   0   0 2802.99 355.238   1
  -5   0  -1-10.4311 62.4423   1
   5   0   1 7.13137 28.7261   1
   5   0   2 12237.4 895.020   1
  -5   0  -2 11234.0 843.217   1
  -5   0  -3-28.4442 48.1343   1
   5   0   3 43.7388 99.9745   1
  -5   0  -4 36716.4 1707.43   1
   5   0   4 36965.7 1811.54   1
   5   0   5-51.2929 105.789   1
  -5   0  -5 76.1035 76.1585   1
  -5   0  -6 25247.2 1567.99   1
  -5   0  -7 177.265 159.338   1
   5  -1  -3 9805.10 604.871   1
   5  -1  -2 28447.7 1033.31   1
  -5   1   1 20972.3 1011.53   1
   5  -1  -1 20746.7 964.270   1
   5  -1   0 2969.39 393.208   1
  -5   1   0 2710.65 382.209   1
   5   1   1 2122.91 400.176   1
  -5   1  -1 3214.26 439.519   1
   5  -1   1 3266.32 468.823   1
  -5  -1  -1 3361.98 466.841   1
  -5   1  -2 42230.7 1697.93   1
   5   1   2 42351.7 1653.97   1
   5  -1   2 41709.6 1785.09   1
  -5  -1  -2 43351.1 1734.42   1
  -5   1  -3 6666.04 698.910   1
   5   1   3 6078.21 697.190   1
   5  -1   3 6643.81 727.882   1
  -5  -1  -3 6311.67 709.819   1
  -5   1  -4-65.9522 142.522   1
  -5  -1  -4-86.3833 119.275   1
   5   1   4 108.286 148.876   1
   5  -1   4-53.0621 115.176   1
   5   1   5 6817.07 806.531   1
  -5  -1  -5 6639.70 766.878   1
  -5  -1  -6 8082.93 877.979   1
   5   1   6 5603.37 762.272   1
  -5  -1  -7 1276.69 377.756   1
  -5  -1  -8-161.197 133.894   1
   5  -2  -6 82.9104 55.2350   1
   5  -2  -5 1256.25 204.676   1
   5  -2  -4 2943.59 281.799   1
   5  -2  -3 4707.95 399.657   1
  -5   2   2 77.2688 64.7377   1
   5  -2  -2 279.751 102.473   1
   5  -2  -1 6.01134 63.8936   1
  -5   2   1 41.6460 69.5092   1
  -5   2   0 686.316 170.806   1
   5  -2   0 1238.53 282.280   1
  -5   2  -1 1347.08 312.997   1
   5  -2   1 1299.55 319.536   1
   5  -2   2 2380.42 490.389   1
   5   2   2 2923.44 436.504   1
  -5   2  -2 2458.71 461.060   1
  -5  -2  -3 4649.11 593.955   1
   5   2   3 4583.21 563.783   1
  -5  -2  -4 7752.41 812.509   1
   5   2   4 8179.03 800.934   1
  -5  -2  -5 2023.13 450.717   1
   5   2   5 1974.80 394.448   1
   5   2   6 2107.41 468.780   1
  -5  -2  -6 2970.28 528.096   1
  -5  -2  -7 4519.62 658.996   1
   5   2   7 4008.62 638.832   1
  -5  -2  -8 1786.71 468.669   1
  -5  -2  -9 774.018 293.373   1
  -5   3   3 2451.27 281.347   1
  -5   3   2 13118.7 715.696   1
  -5   3   1 9459.37 714.652   1
  -5   3   0 60657.9 1953.93   1
   5   3   4 21065.9 1307.91   1
   5   3   5 3960.76 582.965   1
   5   3   6 479.335 184.126   1
  -5  -3  -6 1129.63 379.749   1
  -5  -3  -7 478.935 271.965   1
   5   3   7 78.2297 110.499   1
   5   3   8-90.9412 139.464   1
  -5  -3  -8 680.704 282.311   1
  -5  -3  -9-78.7631 165.054   1
  -5   4   4 1302.88 200.746   1
  -5   4   3 3.31940 23.5490   1
  -5   4   2 903.307 193.436   1
   5   4   6 742.974 301.385   1
   5   4   7 396.301 200.597   1
   5   4   8 1131.82 369.148   1
  -5   5   4 320.971 106.644   1
   6   0  -1 1.48288 76.1586   1
   6   0   0 513920. 5687.69   1
  -6   0   0 509106. 6005.01   1
  -6   0  -1-18.1996 87.2261   1
   6   0   1 154.851 127.377   1
  -6   0  -2 23433.6 1372.04   1
   6   0   2 23987.9 1395.08   1
   6   0   3-89.0646 80.8223   1
  -6   0  -3-4.28311 93.3969   1
  -6   0  -4 84021.7 2856.48   1
   6   0   4 87120.8 3006.62   1
   6   0   5-329.579 323.602   1
  -6   0  -5 65.3877 58.3827   1
  -6   0  -6 5661.55 809.856   1
  -6   0  -7 317.161 219.041   1
   6  -1  -3 1746.65 308.399   1
   6  -1  -2 240.273 124.949   1
  -6   1   1 185.887 122.783   1
   6  -1  -1 91.3240 77.1258   1
   6  -1   0 6297.36 645.890   1
  -6   1   0 6849.33 659.317   1
  -6  -1  -1-73.0397 145.350   1
   6   1   1 42.9870 59.0997   1
  -6   1  -1-35.3123 77.0260   1
   6  -1   1-38.3190 92.7886   1
  -6  -1  -2 4161.65 577.842   1
   6  -1   2 3651.65 561.961   1
  -6   1  -2 3757.73 518.677   1
   6   1   2 4403.73 574.553   1
   6   1   3 5534.19 671.109   1
  -6  -1  -3 5654.19 691.718   1
  -6   1  -3 5132.90 654.879   1
   6  -1   3 6227.79 772.785   1
   6   1   4 9100.25 908.717   1
   6  -1   4 9149.31 997.810   1
  -6  -1  -4 8757.80 940.898   1
  -6   1  -4 9531.22 968.454   1
   6   1   5 141.022 142.007   1
  -6  -1  -5 177.813 197.184   1
  -6   1  -5 76.2764 108.904   1
   6   1   6 1133.61 386.177   1
  -6  -1  -6 507.260 242.870   1
  -6  -1  -7 105.242 108.199   1
   6   1   7-136.379 141.166   1
  -6  -1  -8 3523.40 683.945   1
   6  -2  -6 971.744 215.513   1
   6  -2  -4 1266.47 213.220   1
   6  -2  -3 93396.4 2016.85   1
  -6   2   2 41063.5 1468.37   1
   6  -2  -2 43951.0 1495.34   1
  -6   2   1 7429.36 658.791   1
   6  -2  -1 7550.58 662.666   1
   6  -2   0 722.797 200.284   1
  -6   2   0 733.296 201.248   1
  -6   2  -1 15836.4 1096.78   1
   6  -2   1 16977.8 1210.08   1
   6  -2   2 52380.2 2305.98   1
  -6   2  -2 51508.8 2161.78   1
  -6  -2  -3 84582.1 2810.57   1
   6   2   3 84462.4 2651.54   1
  -6   2  -3 85946.2 2788.14   1
  -6  -2  -4 3275.41 616.602   1
   6   2   4 3881.98 601.771   1
  -6  -2  -5 9336.85 1028.88   1
   6   2   5 8667.54 965.888   1
  -6  -2  -6 3252.22 596.766   1
   6   2   6 3106.10 576.987   1
  -6  -2  -7 3516.93 651.477   1
   6   2   7 2069.99 530.603   1
  -6  -2  -8 1689.63 443.761   1
  -6  -2  -9 831.539 208.338   1
   6  -3  -4 1693.47 265.919   1
  -6   3   3 6412.03 519.587   1
   6  -3  -3 5356.58 497.099   1
  -6   3   2 20440.7 1019.79   1
   6  -3  -2 18712.4 1032.74   1
  -6   3   1 18563.8 1022.35   1
   6  -3  -1 18615.5 1116.99   1
  -6   3   0 792.352 252.771   1
  -6   3  -1 10654.4 894.178   1
   6   3   4 13360.5 1120.76   1
   6   3   5 12888.9 1143.71   1
   6   3   6 7133.14 909.253   1
  -6  -3  -6 8101.99 991.661   1
   6   3   7 2868.06 591.986   1
  -6  -3  -7 4056.31 685.220   1
   6   3   8 2526.02 593.068   1
  -6  -3  -8 3660.91 733.394   1
  -6  -3  -9 1249.20 505.254   1
  -6   4   4 623.714 136.100   1
  -6   4   3 329.661 107.519   1
  -6   4   2 26063.3 1139.74   1
  -6   4   1 71.6114 93.5805   1
   6   4   6 33373.3 1936.09   1
   6   4   7 65.7726 58.1909   1
   6   4   8 614.741 312.493   1
  -6   5   4-29.6788 63.3856   1
  -6   5   3 5386.29 520.746   1
   7   0  -1-116.041 138.206   1
  -7   0   0 582.586 178.943   1
   7   0   0 708.334 225.674   1
   7   0   1 32.4598 61.9303   1
  -7   0  -1-82.4916 118.669   1
  -7   0  -2 3715.66 577.395   1
   7   0   2 3326.20 617.316   1
  -7   0  -3-186.797 192.326   1
   7   0   3-91.8907 89.0314   1
  -7   0  -4 18791.4 1457.86   1
   7   0   4 20917.7 1544.19   1
   7   0   5 3.16504 179.763   1
  -7   0  -5-99.4812 115.297   1
  -7   0  -6 8190.04 1042.28   1
   7   0   6 6816.44 1040.05   1
  -7   0  -7-315.703 316.444   1
   7  -1  -3 9862.02 756.793   1
   7  -1  -2 26860.9 1289.50   1
  -7   1   1 6274.86 720.930   1
   7  -1  -1 6704.27 684.316   1
  -7   1   0 9337.11 856.756   1
   7  -1   0 8160.73 790.484   1
   7  -1   1 1896.53 414.589   1
  -7   1  -1 2444.50 468.572   1
  -7  -1  -2 45642.1 2149.70   1
  -7   1  -2 41243.3 2010.96   1
   7   1   2 44667.5 2006.62   1
   7  -1   2 41328.7 2084.51   1
  -7  -1  -3 6879.89 823.723   1
   7   1   3 6623.56 784.193   1
   7  -1   3 6866.86 812.828   1
  -7   1  -3 6408.60 771.785   1
  -7  -1  -4 521.583 302.808   1
   7   1   4 782.944 282.905   1
   7  -1   4 299.665 200.905   1
  -7   1  -4 328.524 182.517   1
   7   1   5 8317.96 980.995   1
  -7  -1  -5 8467.45 1053.60   1
   7  -1   5 7867.73 1047.66   1
  -7   1  -5 8337.38 984.841   1
  -7  -1  -6 4399.16 768.147   1
   7   1   6 2338.07 641.721   1
  -7  -1  -7 647.117 349.798   1
   7   1   7 764.788 348.741   1
   7  -2  -5 4793.13 471.537   1
   7  -2  -4 11900.2 748.150   1
   7  -2  -3 107.982 60.5955   1
  -7   2   2 710.387 162.275   1
   7  -2  -2 299.477 108.130   1
  -7   2   1 333.364 190.322   1
   7  -2  -1 265.761 70.4112   1
   7  -2   0 746.747 302.971   1
  -7   2   0 1350.62 333.272   1
   7  -2   1 413.515 200.060   1
  -7   2  -1 654.293 265.465   1
   7  -2   2 1483.81 407.543   1
  -7   2  -2 1279.13 329.794   1
  -7   2  -3 6751.34 841.177   1
   7  -2   3 6641.96 849.530   1
   7   2   3 7206.85 820.388   1
  -7  -2  -3 6867.55 834.241   1
  -7  -2  -4 599.356 264.399   1
  -7   2  -4-240.400 216.510   1
   7   2   4 708.129 317.660   1
  -7  -2  -5 2635.07 553.923   1
   7   2   5 2705.22 576.947   1
   7   2   6 190.538 250.237   1
  -7  -2  -6 204.068 154.100   1
   7   2   7 7644.29 1048.75   1
  -7  -2  -7 8378.75 1098.54   1
   7  -3  -4 14231.3 848.250   1
  -7   3   3 12245.5 833.733   1
   7  -3  -3 10630.0 793.353   1
  -7   3   2 12021.8 857.110   1
   7  -3  -2 9267.82 827.165   1
  -7   3   1 30236.0 1425.06   1
   7  -3  -1 28818.3 1485.63   1
  -7   3   0 60109.3 2122.62   1
  -7   3  -1 8337.99 874.694   1
   7  -3   1 8021.88 929.861   1
   7   3   5 1843.02 486.458   1
   7   3   6 266.963 265.940   1
   7   3   7 319.579 255.199   1
  -7  -3  -7-538.405 368.161   1
  -7   4   4 922.004 197.475   1
  -7   4   3 1274.77 250.311   1
  -7   4   2-5.98068 91.1701   1
  -7   4   1 102.873 112.284   1
   7   4   7 223.267 200.008   1
  -7   5   4 1513.64 275.486   1
  -7   5   3 25935.7 1181.36   1
  -7   5   2 52.8538 126.577   1
  -7   6   4 1.14785 52.6712   1
   8   0  -1 174.659 186.570   1
   8   0   0 1574.41 376.742   1
  -8   0   0 1564.16 388.905   1
   8   0   1-87.7554 86.9250   1
  -8   0  -1-15.3078 89.8262   1
  -8   0  -2 26945.5 1661.28   1
   8   0   2 27107.0 1691.46   1
  -8   0  -3 72.0332 130.156   1
   8   0   3-46.8771 75.5830   1
   8   0   4 661.101 224.450   1
  -8   0  -4 1358.12 455.413   1
  -8   0  -5-64.4750 131.266   1
   8   0   5-224.871 228.059   1
   8   0   6 6291.90 995.341   1
  -8   0  -6 6385.96 994.800   1
   8  -1  -3 1789.10 362.624   1
   8  -1  -2-39.4640 110.275   1
  -8   1   1 177.535 201.009   1
   8  -1  -1 203.914 154.092   1
  -8   1   0 313.368 186.463   1
   8  -1   0 165.330 148.062   1
  -8   1  -1 3121.41 531.769   1
   8  -1   1 2887.64 538.736   1
   8   1   1 2847.08 491.287   1
  -8  -1  -2 1153.98 360.041   1
  -8   1  -2 1337.77 345.888   1
   8   1   2 1875.23 376.967   1
   8  -1   2 1887.50 460.192   1
  -8  -1  -3 9486.07 1065.83   1
   8  -1   3 8716.66 1031.07   1
   8   1   3 10189.2 1063.54   1
  -8   1  -3 9039.12 979.806   1
  -8  -1  -4 1883.42 493.228   1
   8  -1   4 1621.60 443.395   1
  -8   1  -4 1346.26 420.612   1
   8   1   4 1499.88 442.902   1
  -8  -1  -5 18823.8 1698.27   1
  -8   1  -5 21162.2 1687.39   1
   8   1   5 19949.3 1688.96   1
   8  -1   5 20507.3 1741.94   1
  -8  -1  -6 801.410 339.834   1
   8   1   6 700.933 379.083   1
   8  -2  -5 11578.9 805.115   1
   8  -2  -4 4507.17 501.682   1
   8  -2  -3 13509.9 959.455   1
  -8   2   2 296.507 186.557   1
   8  -2  -2 216.343 109.317   1
  -8   2   1 29786.9 1573.98   1
   8  -2  -1 28837.0 1535.18   1
   8  -2   0 1157.88 326.815   1
  -8   2   0 1924.36 429.372   1
  -8   2  -1 28248.9 1618.85   1
   8  -2   1 28507.6 1682.68   1
   8  -2   2 1215.41 400.151   1
  -8   2  -2 1617.46 434.421   1
  -8   2  -3 11667.9 1147.26   1
   8   2   3 12223.8 1167.34   1
   8  -2   3 10383.7 1228.37   1
   8   2   4 842.605 346.607   1
  -8   2  -4 1361.07 468.885   1
  -8  -2  -4 309.591 214.426   1
  -8  -2  -5 8648.72 1166.02   1
   8   2   5 9238.43 1163.76   1
   8   2   6 405.668 261.391   1
  -8  -2  -6 87.9884 207.772   1
   8  -3  -4 4829.84 526.920   1
   8  -3  -3 695.379 265.026   1
  -8   3   3 720.673 181.428   1
  -8   3   2 88.5941 62.5704   1
   8  -3  -2 34.9946 34.4952   1
   8  -3  -1 3120.14 523.427   1
  -8   3   1 3431.32 462.972   1
   8  -3   0 409.005 256.211   1
  -8   3   0 473.086 213.901   1
   8  -3   1 140.623 151.117   1
  -8   3  -1 74.6207 161.992   1
  -8   3  -2 1573.64 412.844   1
   8   3   5-3.28588 173.163   1
   8   3   6-35.4437 174.797   1
  -8   4   3 2475.12 372.042   1
  -8   4   2 7769.07 747.731   1
  -8   4   1 8857.85 800.557   1
  -8   4   0 23101.8 1421.15   1
  -8   5   4 12.5350 78.0354   1
  -8   5   3 101.560 107.538   1
  -8   5   2 667.608 243.149   1
   9   0   0 1018.31 310.249   1
  -9   0  -1-92.4638 104.771   1
   9   0   1-27.6364 95.4008   1
  -9   0  -2 8871.42 1066.08   1
   9   0   2 9848.91 1119.54   1
  -9   0  -3 116.785 73.6133   1
   9   0   3-20.0567 161.035   1
   9   0   4 6693.71 941.967   1
  -9   0  -4 5932.31 891.374   1
   9  -1  -2 421.408 248.043   1
  -9   1   1 40896.9 2083.68   1
   9  -1  -1 39750.1 1984.39   1
  -9   1   0 29552.4 1797.15   1
   9  -1   0 28259.8 1712.27   1
  -9   1  -1 46546.4 2288.53   1
   9   1   1 46850.1 2233.46   1
   9  -1   1 46049.4 2253.21   1
  -9   1  -2 410.755 319.705   1
  -9  -1  -2 653.248 322.719   1
   9  -1   2 94.0040 191.236   1
   9   1   2 352.213 137.470   1
  -9  -1  -3 36102.4 2231.41   1
  -9   1  -3 32774.1 2104.25   1
   9   1   3 35420.7 2123.03   1
   9  -1   3 32782.2 2134.04   1
  -9  -1  -4 22936.0 1844.21   1
  -9   1  -4 20630.0 1740.20   1
   9   1   4 21870.7 1755.66   1
   9  -1   4 22667.4 1878.27   1
   9  -2  -4 10222.7 858.336   1
   9  -2  -3 2736.21 446.009   1
   9  -2  -2-41.1200 143.265   1
  -9   2   2 105.593 215.735   1
  -9   2   1 138.548 181.792   1
   9  -2  -1-135.335 169.655   1
   9  -2   0 3067.36 570.322   1
  -9   2   0 3099.39 594.843   1
   9  -2   1 347.977 184.442   1
  -9   2  -1 625.779 274.815   1
   9  -2   2 1460.81 458.157   1
  -9   2  -2 1722.82 437.140   1
  -9   2  -3 2203.70 531.293   1
   9  -2   3 2823.41 618.764   1
   9   2   3 2960.04 567.606   1
   9   2   4 951.983 477.783   1
  -9   2  -4 360.769 188.308   1
   9  -2   4 623.947 404.056   1
  -9  -2  -4 806.170 420.845   1
   9  -3  -4 821.570 259.845   1
   9  -3  -3 1111.35 289.643   1
  -9   3   2 18067.1 1243.31   1
   9  -3  -2 15648.4 1165.62   1
   9  -3  -1 533.083 238.144   1
  -9   3   1 930.047 234.613   1
   9  -3   0 467.376 257.551   1
  -9   3   0 576.260 209.138   1
   9  -3   1 894.582 396.933   1
  -9   3  -1 1119.16 283.180   1
  -9   3  -2 20332.0 1594.01   1
   9  -3   2 20109.0 1669.57   1
  -9   4   3 3616.31 531.940   1
  -9   4   2 25058.6 1434.42   1
  -9   4   1 213.654 181.338   1
  -9   4   0 486.887 227.246   1
  -9   4  -1-163.194 196.067   1
  -9   5   3 6634.66 668.534   1
  -9   5   1 800.625 77.6195   1
  10   0   0 2959.55 574.541   1
  10   0   1 101.965 121.355   1
 -10   0  -1 3.41822 168.924   1
 -10   0  -2 20078.9 1721.93   1
  10   0   2 19398.5 1634.01   1
 -10   0  -3-276.096 215.107   1
  10   0   3 210.983 200.235   1
  10  -1  -2 1434.19 354.405   1
  10  -1  -1-48.9564 164.996   1
 -10   1   0 109.342 78.2410   1
  10  -1   0 457.447 288.550   1
 -10   1  -1 188.743 85.8314   1
  10  -1   1 608.491 266.415   1
  10   1   2-74.6986 217.280   1
 -10   1  -2 334.664 223.016   1
 -10  -1  -2 418.163 227.106   1
  10  -1   2-32.0419 98.4927   1
 -10  -1  -3 820.917 334.421   1
  10  -1   3 1983.52 528.927   1
 -10   1  -3 1546.03 545.908   1
  10   1   3 1646.50 413.926   1
  10  -2  -4 190.025 194.192   1
  10  -2  -3 16883.9 1268.38   1
  10  -2  -2 2400.81 531.339   1
 -10   2   1 25863.6 1747.63   1
  10  -2  -1 24205.7 1645.72   1
  10  -2   0-60.5024 120.619   1
 -10   2   0 12.0248 215.640   1
 -10   2  -1 19814.3 1636.14   1
  10  -2   1 20894.0 1648.19   1
 -10   2  -2 1486.28 466.858   1
  10  -2   2 695.372 337.638   1
  10  -3  -4 158.267 147.465   1
  10  -3  -3 2.31132 163.553   1
 -10   3   2 184.773 250.655   1
  10  -3  -2-105.694 157.176   1
 -10   3   1 473.971 128.999   1
  10  -3  -1 641.043 272.951   1
  10  -3   0 6.39324 149.386   1
 -10   3   0 175.413 156.353   1
 -10   3  -1-51.2710 217.697   1
  10  -3   1 116.618 209.134   1
  10  -3   2 1598.17 533.462   1
 -10   3  -2 1675.21 440.187   1
 -10   4   3 3826.49 609.393   1
  10  -4  -3 4017.96 642.830   1
  10  -4  -2 9814.25 1085.28   1
 -10   4   2 12316.9 1117.69   1
 -10   4   1 3133.68 612.197   1
 -10   4   0 29585.1 1795.01   1
 -10   4  -1 4797.06 728.886   1
 -10   5   3-113.756 106.442   1
 -10   5   2 793.555 208.196   1
 -10   5   1 2.62733 81.7834   1
  11   0   0 1196.87 490.495   1
  11   0   1-109.393 158.186   1
 -11   0  -1 244.207 276.589   1
  11  -1  -1 9430.76 1089.66   1
  11  -1   0 954.062 371.818   1
 -11   1   0 1143.04 372.476   1
 -11   1  -1 1982.52 601.942   1
  11  -1   1 931.399 361.801   1
  11  -2  -3 548.275 162.434   1
  11  -2  -2 46.1810 126.681   1
 -11   2   1-258.790 239.243   1
  11  -2  -1 6.33051 164.834   1
 -11   2   0 710.138 347.300   1
  11  -2   0 164.962 144.129   1
 -11   2  -1 1042.71 445.562   1
  11  -2   1 775.073 348.461   1
  11  -3  -4 12249.3 1043.91   1
  11  -3  -3 774.418 282.061   1
  11  -3  -2 2599.40 619.180   1
 -11   3   2 4501.46 685.077   1
 -11   3   1 4302.19 741.646   1
  11  -3  -1 4518.53 794.720   1
  11  -3   0 13490.0 1411.83   1
 -11   3   0 15704.7 1383.32   1
  11  -4  -3 379.339 276.359   1
 -11   4   3 110.144 76.8407   1
 -11   4   2 451.670 249.720   1
  11  -4  -2 495.657 274.313   1
 -11   4   1 1139.77 398.262   1
  11  -4  -1 1216.46 440.296   1
 -11   4   0 89.9973 160.633   1
 -11   5   3 2624.68 580.291   1
 -11   5   2-10.9623 82.3461   1
 -11   5   1 8846.33 996.648   1
  12  -1  -1-271.233 172.290   1
  12  -2  -2 6436.60 858.246   1
 -12   2   1 1235.51 428.876   1
  12  -2  -1 943.420 312.122   1
  12  -3  -3 930.293 379.380   1
  12  -3  -2 4288.99 767.577   1
 -12   3   2 4380.75 712.397   1
 -12   3   1 2494.86 555.680   1
  12  -3  -1 1545.09 454.830   1
  12  -4  -3-191.248 223.960   1
 -12   4   2 6918.32 909.465   1
  12  -4  -2 4901.74 884.267   1
 -12   5   3 1233.21 425.097   1
 -12   5   2 6.24427 73.1772   1
  13  -4  -3 571.802 394.258   1
   0   0   0    0.00    0.00   0

TITL slav_p07_s1 in P2(1)/c
REM P2(1)/c (#14 in standard setting)
CELL 0.41106   8.856163   8.671999   6.649598  90.0000  90.4519  90.0000
ZERR    4.00   0.000311   0.002777   0.000503   0.0000   0.0038   0.0000
LATT  1
SYMM -x, y+1/2,-z+1/2
SFAC O Al Si Sr
UNIT 32.00 8.00 8.00 4.00
TREF
HKLF 4
END
;
_shelx_hkl_checksum              27033
loop_
_space_group_symop_operation_xyz
'x, y, z'
'-x, y+1/2, -z+1/2'
'-x, -y, -z'
'x, -y-1/2, z-1/2'
loop_
_atom_site_label
_atom_site_type_symbol
_atom_site_fract_x
_atom_site_fract_y
_atom_site_fract_z
_atom_site_U_iso_or_equiv
_atom_site_adp_type
_atom_site_occupancy
_atom_site_site_symmetry_order
_atom_site_calc_flag
_atom_site_refinement_flags_posn
_atom_site_refinement_flags_adp
_atom_site_refinement_flags_occupancy
_atom_site_disorder_assembly
_atom_site_disorder_group
Sr1 Sr 0.75122(12) 0.6117(4) 0.2702(2) 0.0260(14) Uani 1 1 d . . . . .
Si1 Si 0.5849(4) 0.5443(13) 0.7804(8) 0.032(3) Uani 1 1 d . . . . .
Si2 Si 1.0749(4) 0.7230(13) 0.5131(8) 0.036(4) Uani 1 1 d . . . . .
Al1 Al 0.9115(5) 0.5290(14) 0.8142(9) 0.030(4) Uani 1 1 d . . . . .
Al2 Al 0.4079(5) 0.7646(15) 1.0134(9) 0.042(5) Uani 1 1 d . . . . .
O1 O 0.7377(11) 0.607(2) 0.8932(18) 0.017(2) Uiso 1 1 d . . . . .
O2 O 0.9428(12) 0.350(3) 0.726(2) 0.020(3) Uiso 1 1 d . . . . .
O3 O 1.0806(11) 0.906(3) 0.4317(19) 0.021(3) Uiso 1 1 d . . . . .
O4 O 0.4280(11) 0.596(3) 0.8841(18) 0.019(2) Uiso 1 1 d . . . . .
O5 O 0.5825(11) 0.636(3) 0.5681(19) 0.020(3) Uiso 1 1 d . . . . .
O6 O 1.2351(10) 0.652(3) 0.5697(17) 0.017(2) Uiso 1 1 d . . . . .
O7 O 0.9179(11) 0.639(3) 0.5918(18) 0.019(3) Uiso 1 1 d . . . . .
O8 O 0.5850(13) 0.360(3) 0.747(2) 0.024(3) Uiso 1 1 d . . . . .
loop_
_atom_site_aniso_label
_atom_site_aniso_U_11
_atom_site_aniso_U_22
_atom_site_aniso_U_33
_atom_site_aniso_U_23
_atom_site_aniso_U_13
_atom_site_aniso_U_12
Sr1 0.0116(8) 0.031(5) 0.0354(12) -0.0008(9) -0.0044(7) -0.0006(7)
Si1 0.0077(17) 0.062(12) 0.028(3) -0.005(3) -0.004(2) 0.002(2)
Si2 0.0057(16) 0.078(14) 0.024(3) -0.004(3) -0.0022(18) 0.001(2)
Al1 0.0083(18) 0.057(14) 0.026(3) 0.000(4) -0.0023(19) 0.001(3)
Al2 0.008(2) 0.084(17) 0.034(4) -0.003(4) -0.005(2) 0.001(3)
loop_
_atom_type_symbol
_atom_type_description
_atom_type_scat_dispersion_real
_atom_type_scat_dispersion_imag
_atom_type_scat_source
O O 0.0017 0.0018 'International Tables Vol C Tables 4.2.6.8 and 6.1.1.4'
Al Al 0.0192 0.0163 'International Tables Vol C Tables 4.2.6.8 and 6.1.1.4'
Si Si 0.0265 0.0226 'International Tables Vol C Tables 4.2.6.8 and 6.1.1.4'
Sr Sr 0.2429 1.2951 'International Tables Vol C Tables 4.2.6.8 and 6.1.1.4'
loop_
_geom_angle_atom_site_label_1
_geom_angle_atom_site_label_2
_geom_angle_atom_site_label_3
_geom_angle
_geom_angle_site_symmetry_1
_geom_angle_site_symmetry_3
_geom_angle_publ_flag
O5 Sr1 O1 140.3(3) . 1_554 ?
O5 Sr1 O6 76.7(6) . 3_766 ?
O1 Sr1 O6 114.0(6) 1_554 3_766 ?
O5 Sr1 O1 68.8(6) . 4_575 ?
O1 Sr1 O1 109.4(4) 1_554 4_575 ?
O6 Sr1 O1 136.6(4) 3_766 4_575 ?
O5 Sr1 O7 71.3(3) . . ?
O1 Sr1 O7 147.7(3) 1_554 . ?
O6 Sr1 O7 73.2(6) 3_766 . ?
O1 Sr1 O7 71.3(5) 4_575 . ?
O5 Sr1 O4 90.3(5) . 3_666 ?
O1 Sr1 O4 64.5(5) 1_554 3_666 ?
O6 Sr1 O4 64.4(5) 3_766 3_666 ?
O1 Sr1 O4 138.5(4) 4_575 3_666 ?
O7 Sr1 O4 136.7(6) . 3_666 ?
O5 Sr1 O3 142.1(7) . 2_745 ?
O1 Sr1 O3 60.8(5) 1_554 2_745 ?
O6 Sr1 O3 65.5(5) 3_766 2_745 ?
O1 Sr1 O3 144.4(5) 4_575 2_745 ?
O7 Sr1 O3 99.1(4) . 2_745 ?
O4 Sr1 O3 71.6(4) 3_666 2_745 ?
O5 Sr1 O2 125.6(4) . 3_766 ?
O1 Sr1 O2 92.9(4) 1_554 3_766 ?
O6 Sr1 O2 93.6(6) 3_766 3_766 ?
O1 Sr1 O2 86.0(6) 4_575 3_766 ?
O7 Sr1 O2 54.8(4) . 3_766 ?
O4 Sr1 O2 133.6(6) 3_666 3_766 ?
O3 Sr1 O2 62.1(6) 2_745 3_766 ?
O5 Sr1 O7 125.1(6) . 4_575 ?
O1 Sr1 O7 67.8(5) 1_554 4_575 ?
O6 Sr1 O7 146.2(4) 3_766 4_575 ?
O1 Sr1 O7 56.3(4) 4_575 4_575 ?
O7 Sr1 O7 88.9(4) . 4_575 ?
O4 Sr1 O7 132.0(4) 3_666 4_575 ?
O3 Sr1 O7 90.2(5) 2_745 4_575 ?
O2 Sr1 O7 53.1(6) 3_766 4_575 ?
O5 Sr1 O5 89.7(4) . 4_575 ?
O1 Sr1 O5 62.6(5) 1_554 4_575 ?
O6 Sr1 O5 151.8(4) 3_766 4_575 ?
O1 Sr1 O5 54.6(4) 4_575 4_575 ?
O7 Sr1 O5 125.9(6) . 4_575 ?
O4 Sr1 O5 91.6(5) 3_666 4_575 ?
O3 Sr1 O5 122.8(4) 2_745 4_575 ?
O2 Sr1 O5 114.3(6) 3_766 4_575 ?
O7 Sr1 O5 61.2(4) 4_575 4_575 ?
O5 Sr1 O8 54.7(3) . 3_666 ?
O1 Sr1 O8 85.6(3) 1_554 3_666 ?
O6 Sr1 O8 97.8(5) 3_766 3_666 ?
O1 Sr1 O8 83.4(5) 4_575 3_666 ?
O7 Sr1 O8 125.7(4) . 3_666 ?
O4 Sr1 O8 55.8(6) 3_666 3_666 ?
O3 Sr1 O8 126.2(5) 2_745 3_666 ?
O2 Sr1 O8 168.2(8) 3_766 3_666 ?
O7 Sr1 O8 115.9(5) 4_575 3_666 ?
O5 Sr1 O8 54.8(5) 4_575 3_666 ?
O5 Sr1 Al1 135.9(3) . 3_766 ?
O1 Sr1 Al1 81.9(3) 1_554 3_766 ?
O6 Sr1 Al1 72.2(3) 3_766 3_766 ?
O1 Sr1 Al1 116.8(3) 4_575 3_766 ?
O7 Sr1 Al1 70.3(3) . 3_766 ?
O4 Sr1 Al1 103.2(4) 3_666 3_766 ?
O3 Sr1 Al1 32.7(3) 2_745 3_766 ?
O2 Sr1 Al1 30.9(6) 3_766 3_766 ?
O7 Sr1 Al1 74.8(4) 4_575 3_766 ?
O5 Sr1 Al1 130.8(3) 4_575 3_766 ?
O8 Sr1 Al1 158.8(5) 3_666 3_766 ?
O8 Si1 O4 109.4(11) . . ?
O8 Si1 O5 111.6(10) . . ?
O4 Si1 O5 103.3(9) . . ?
O8 Si1 O1 112.9(9) . . ?
O4 Si1 O1 115.1(8) . . ?
O5 Si1 O1 104.1(8) . . ?
O8 Si1 Al2 119.1(6) . 4_575 ?
O4 Si1 Al2 68.9(7) . 4_575 ?
O5 Si1 Al2 34.7(5) . 4_575 ?
O1 Si1 Al2 122.5(9) . 4_575 ?
O8 Si1 Al1 87.9(5) . . ?
O4 Si1 Al1 146.9(6) . . ?
O5 Si1 Al1 95.5(4) . . ?
O1 Si1 Al1 32.7(6) . . ?
Al2 Si1 Al1 127.6(4) 4_575 . ?
O8 Si1 Sr1 65.1(4) . 3_666 ?
O4 Si1 Sr1 51.4(7) . 3_666 ?
O5 Si1 Sr1 96.1(5) . 3_666 ?
O1 Si1 Sr1 158.4(5) . 3_666 ?
Al2 Si1 Sr1 71.7(2) 4_575 3_666 ?
Al1 Si1 Sr1 153.0(5) . 3_666 ?
O8 Si1 Sr1 152.2(5) . 4_576 ?
O4 Si1 Sr1 98.2(9) . 4_576 ?
O5 Si1 Sr1 62.9(8) . 4_576 ?
O1 Si1 Sr1 49.3(7) . 4_576 ?
Al2 Si1 Sr1 73.2(3) 4_575 4_576 ?
Al1 Si1 Sr1 66.5(3) . 4_576 ?
Sr1 Si1 Sr1 140.2(3) 3_666 4_576 ?
O8 Si1 Sr1 106.5(5) . 1_556 ?
O4 Si1 Sr1 85.2(4) . 1_556 ?
O5 Si1 Sr1 135.1(8) . 1_556 ?
O1 Si1 Sr1 37.1(4) . 1_556 ?
Al2 Si1 Sr1 132.7(4) 4_575 1_556 ?
Al1 Si1 Sr1 62.52(14) . 1_556 ?
Sr1 Si1 Sr1 121.46(17) 3_666 1_556 ?
Sr1 Si1 Sr1 72.30(16) 4_576 1_556 ?
O8 Si1 Sr1 91.7(5) . . ?
O4 Si1 Sr1 133.3(7) . . ?
O5 Si1 Sr1 30.6(6) . . ?
O1 Si1 Sr1 92.0(5) . . ?
Al2 Si1 Sr1 64.50(17) 4_575 . ?
Al1 Si1 Sr1 71.30(16) . . ?
Sr1 Si1 Sr1 109.45(14) 3_666 . ?
Sr1 Si1 Sr1 70.45(16) 4_576 . ?
Sr1 Si1 Sr1 129.03(16) 1_556 . ?
O6 Si2 O7 120.3(10) . . ?
O6 Si2 O3 114.4(8) . . ?
O7 Si2 O3 123.0(8) . . ?
O6 Si2 O2 98.7(8) . 3_766 ?
O7 Si2 O2 93.4(9) . 3_766 ?
O3 Si2 O2 93.0(10) . 3_766 ?
O6 Si2 O2 94.7(7) . 2_756 ?
O7 Si2 O2 84.2(8) . 2_756 ?
O3 Si2 O2 76.6(8) . 2_756 ?
O2 Si2 O2 165.7(7) 3_766 2_756 ?
O6 Si2 Al1 103.1(8) . 2_756 ?
O7 Si2 Al1 108.0(8) . 2_756 ?
O3 Si2 Al1 42.2(6) . 2_756 ?
O2 Si2 Al1 135.1(10) 3_766 2_756 ?
O2 Si2 Al1 34.9(7) 2_756 2_756 ?
O6 Si2 Al1 146.6(7) . 4_575 ?
O7 Si2 Al1 93.0(6) . 4_575 ?
O3 Si2 Al1 33.8(4) . 4_575 ?
O2 Si2 Al1 79.0(9) 3_766 4_575 ?
O2 Si2 Al1 87.0(6) 2_756 4_575 ?
Al1 Si2 Al1 61.3(3) 2_756 4_575 ?
O6 Si2 Sr1 138.3(9) . . ?
O7 Si2 Sr1 47.4(4) . . ?
O3 Si2 Sr1 98.2(4) . . ?
O2 Si2 Sr1 52.3(4) 3_766 . ?
O2 Si2 Sr1 118.6(3) 2_756 . ?
Al1 Si2 Sr1 118.6(3) 2_756 . ?
Al1 Si2 Sr1 65.24(19) 4_575 . ?
O6 Si2 Sr1 37.9(7) . 3_766 ?
O7 Si2 Sr1 82.9(7) . 3_766 ?
O3 Si2 Sr1 151.9(4) . 3_766 ?
O2 Si2 Sr1 96.3(9) 3_766 3_766 ?
O2 Si2 Sr1 97.4(6) 2_756 3_766 ?
Al1 Si2 Sr1 124.6(2) 2_756 3_766 ?
Al1 Si2 Sr1 173.6(3) 4_575 3_766 ?
Sr1 Si2 Sr1 108.5(3) . 3_766 ?
O6 Si2 Sr1 138.2(5) . 4_576 ?
O7 Si2 Sr1 50.2(7) . 4_576 ?
O3 Si2 Sr1 78.7(5) . 4_576 ?
O2 Si2 Sr1 120.9(4) 3_766 4_576 ?
O2 Si2 Sr1 47.9(3) 2_756 4_576 ?
Al1 Si2 Sr1 58.88(17) 2_756 4_576 ?
Al1 Si2 Sr1 62.05(17) 4_575 4_576 ?
Sr1 Si2 Sr1 70.90(9) . 4_576 ?
Sr1 Si2 Sr1 117.87(18) 3_766 4_576 ?
O2 Al1 O7 101.6(10) . . ?
O2 Al1 O1 127.0(10) . . ?
O7 Al1 O1 94.4(8) . . ?
O2 Al1 O3 107.8(8) . 4_576 ?
O7 Al1 O3 99.5(8) . 4_576 ?
O1 Al1 O3 118.9(9) . 4_576 ?
O2 Al1 O3 78.4(10) . 2_746 ?
O7 Al1 O3 176.1(5) . 2_746 ?
O1 Al1 O3 88.6(7) . 2_746 ?
O3 Al1 O3 76.9(9) 4_576 2_746 ?
O2 Al1 Si2 44.5(7) . 2_746 ?
O7 Al1 Si2 146.0(8) . 2_746 ?
O1 Al1 Si2 105.4(8) . 2_746 ?
O3 Al1 Si2 94.8(7) 4_576 2_746 ?
O3 Al1 Si2 34.4(6) 2_746 2_746 ?
O2 Al1 Si1 100.5(6) . . ?
O7 Al1 Si1 87.1(4) . . ?
O1 Al1 Si1 30.0(5) . . ?
O3 Al1 Si1 148.9(7) 4_576 . ?
O3 Al1 Si1 96.8(4) 2_746 . ?
Si2 Al1 Si1 96.4(3) 2_746 . ?
O2 Al1 Si2 139.4(4) . 4_576 ?
O7 Al1 Si2 87.8(7) . 4_576 ?
O1 Al1 Si2 90.9(7) . 4_576 ?
O3 Al1 Si2 31.8(7) 4_576 4_576 ?
O3 Al1 Si2 89.7(6) 2_746 4_576 ?
Si2 Al1 Si2 118.7(3) 2_746 4_576 ?
Si1 Al1 Si2 119.6(4) . 4_576 ?
O2 Al1 Al1 92.7(7) . 3_767 ?
O7 Al1 Al1 140.6(6) . 3_767 ?
O1 Al1 Al1 105.9(5) . 3_767 ?
O3 Al1 Al1 41.1(6) 4_576 3_767 ?
O3 Al1 Al1 35.8(4) 2_746 3_767 ?
Si2 Al1 Al1 59.5(4) 2_746 3_767 ?
Si1 Al1 Al1 126.4(3) . 3_767 ?
Si2 Al1 Al1 59.1(4) 4_576 3_767 ?
O2 Al1 Sr1 56.3(4) . 3_766 ?
O7 Al1 Sr1 91.3(5) . 3_766 ?
O1 Al1 Sr1 172.4(5) . 3_766 ?
O3 Al1 Sr1 55.0(6) 4_576 3_766 ?
O3 Al1 Sr1 85.5(5) 2_746 3_766 ?
Si2 Al1 Sr1 72.1(2) 2_746 3_766 ?
Si1 Al1 Sr1 155.8(4) . 3_766 ?
Si2 Al1 Sr1 84.39(17) 4_576 3_766 ?
Al1 Al1 Sr1 66.6(2) 3_767 3_766 ?
O2 Al1 Sr1 124.8(8) . 1_556 ?
O7 Al1 Sr1 130.1(8) . 1_556 ?
O1 Al1 Sr1 44.7(4) . 1_556 ?
O3 Al1 Sr1 84.2(5) 4_576 1_556 ?
O3 Al1 Sr1 51.4(5) 2_746 1_556 ?
Si2 Al1 Sr1 81.8(2) 2_746 1_556 ?
Si1 Al1 Sr1 68.90(16) . 1_556 ?
Si2 Al1 Sr1 69.59(19) 4_576 1_556 ?
Al1 Al1 Sr1 61.2(2) 3_767 1_556 ?
Sr1 Al1 Sr1 127.77(16) 3_766 1_556 ?
O2 Al1 Sr1 151.1(5) . 4_576 ?
O7 Al1 Sr1 56.8(7) . 4_576 ?
O1 Al1 Sr1 47.0(7) . 4_576 ?
O3 Al1 Sr1 95.6(8) 4_576 4_576 ?
O3 Al1 Sr1 124.5(7) 2_746 4_576 ?
Si2 Al1 Sr1 151.8(2) 2_746 4_576 ?
Si1 Al1 Sr1 62.7(3) . 4_576 ?
Si2 Al1 Sr1 64.6(3) 4_576 4_576 ?
Al1 Al1 Sr1 116.2(5) 3_767 4_576 ?
Sr1 Al1 Sr1 134.4(3) 3_766 4_576 ?
Sr1 Al1 Sr1 73.28(19) 1_556 4_576 ?
O4 Al2 O6 124.2(8) . 4_476 ?
O4 Al2 O5 114.7(7) . 4_576 ?
O6 Al2 O5 120.9(11) 4_476 4_576 ?
O4 Al2 O8 84.9(9) . 2_656 ?
O6 Al2 O8 92.9(8) 4_476 2_656 ?
O5 Al2 O8 86.7(8) 4_576 2_656 ?
O4 Al2 O8 86.1(11) . 3_667 ?
O6 Al2 O8 94.5(7) 4_476 3_667 ?
O5 Al2 O8 94.5(7) 4_576 3_667 ?
O8 Al2 O8 170.5(8) 2_656 3_667 ?
O4 Al2 Si1 138.1(5) . 4_576 ?
O6 Al2 Si1 96.0(7) 4_476 4_576 ?
O5 Al2 Si1 30.8(5) 4_576 4_576 ?
O8 Al2 Si1 106.6(8) 2_656 4_576 ?
O8 Al2 Si1 78.4(6) 3_667 4_576 ?
O4 Al2 Sr1 86.4(6) . 4_576 ?
O6 Al2 Sr1 135.9(9) 4_476 4_576 ?
O5 Al2 Sr1 39.3(4) 4_576 4_576 ?
O8 Al2 Sr1 55.6(4) 2_656 4_576 ?
O8 Al2 Sr1 120.9(4) 3_667 4_576 ?
Si1 Al2 Sr1 69.50(18) 4_576 4_576 ?
O4 Al2 Sr1 162.5(4) . 2_656 ?
O6 Al2 Sr1 39.0(7) 4_476 2_656 ?
O5 Al2 Sr1 81.9(7) 4_576 2_656 ?
O8 Al2 Sr1 90.9(8) 2_656 2_656 ?
O8 Al2 Sr1 98.5(7) 3_667 2_656 ?
Si1 Al2 Sr1 59.3(3) 4_576 2_656 ?
Sr1 Al2 Sr1 105.2(3) 4_576 2_656 ?
O4 Al2 Sr1 80.6(5) . 1_556 ?
O6 Al2 Sr1 140.2(5) 4_476 1_556 ?
O5 Al2 Sr1 51.8(7) 4_576 1_556 ?
O8 Al2 Sr1 122.3(4) 2_656 1_556 ?
O8 Al2 Sr1 53.0(4) 3_667 1_556 ?
Si1 Al2 Sr1 58.9(2) 4_576 1_556 ?
Sr1 Al2 Sr1 67.92(9) 4_576 1_556 ?
Sr1 Al2 Sr1 115.6(2) 2_656 1_556 ?
Si1 O1 Al1 117.3(10) . . ?
Si1 O1 Sr1 119.8(6) . 1_556 ?
Al1 O1 Sr1 105.6(5) . 1_556 ?
Si1 O1 Sr1 102.0(8) . 4_576 ?
Al1 O1 Sr1 102.9(8) . 4_576 ?
Sr1 O1 Sr1 107.3(7) 1_556 4_576 ?
Al1 O2 Si2 130.5(14) . 3_766 ?
Al1 O2 Si2 100.6(8) . 2_746 ?
Si2 O2 Si2 125.1(15) 3_766 2_746 ?
Al1 O2 Sr1 92.9(8) . 3_766 ?
Si2 O2 Sr1 97.9(5) 3_766 3_766 ?
Si2 O2 Sr1 98.0(5) 2_746 3_766 ?
Si2 O3 Al1 114.4(9) . 4_575 ?
Si2 O3 Al1 103.4(8) . 2_756 ?
Al1 O3 Al1 103.1(9) 4_575 2_756 ?
Si2 O3 Sr1 143.7(7) . 2_755 ?
Al1 O3 Sr1 92.3(8) 4_575 2_755 ?
Al1 O3 Sr1 93.1(8) 2_756 2_755 ?
Si1 O4 Al2 122.9(12) . . ?
Si1 O4 Sr1 99.5(9) . 3_666 ?
Al2 O4 Sr1 136.4(6) . 3_666 ?
Si1 O5 Al2 114.6(7) . 4_575 ?
Si1 O5 Sr1 130.1(9) . . ?
Al2 O5 Sr1 113.4(7) 4_575 . ?
Si1 O5 Sr1 88.0(7) . 4_576 ?
Al2 O5 Sr1 99.6(10) 4_575 4_576 ?
Sr1 O5 Sr1 96.9(5) . 4_576 ?
Si2 O6 Al2 125.0(13) . 4_675 ?
Si2 O6 Sr1 119.4(8) . 3_766 ?
Al2 O6 Sr1 115.4(7) 4_675 3_766 ?
Si2 O7 Al1 122.3(6) . . ?
Si2 O7 Sr1 104.7(6) . . ?
Al1 O7 Sr1 128.2(9) . . ?
Si2 O7 Sr1 103.6(10) . 4_576 ?
Al1 O7 Sr1 92.4(6) . 4_576 ?
Sr1 O7 Sr1 96.8(4) . 4_576 ?
Si1 O8 Al2 123.4(11) . 2_646 ?
Si1 O8 Al2 116.3(10) . 3_667 ?
Al2 O8 Al2 120.2(13) 2_646 3_667 ?
Si1 O8 Sr1 85.6(6) . 3_666 ?
Al2 O8 Sr1 92.3(4) 2_646 3_666 ?
Al2 O8 Sr1 96.0(5) 3_667 3_666 ?
loop_
_geom_bond_atom_site_label_1
_geom_bond_atom_site_label_2
_geom_bond_distance
_geom_bond_site_symmetry_2
_geom_bond_publ_flag
Sr1 O5 2.499(13) . ?
Sr1 O1 2.509(12) 1_554 ?
Sr1 O6 2.52(2) 3_766 ?
Sr1 O1 2.58(2) 4_575 ?
Sr1 O7 2.599(11) . ?
Sr1 O4 2.604(19) 3_666 ?
Sr1 O3 2.688(17) 2_745 ?
Sr1 O2 2.730(11) 3_766 ?
Sr1 O7 2.878(19) 4_575 ?
Sr1 O5 2.965(18) 4_575 ?
Sr1 O8 2.989(11) 3_666 ?
Sr1 Al1 3.279(6) 3_766 ?
Si1 O8 1.61(3) . ?
Si1 O4 1.619(13) . ?
Si1 O5 1.621(17) . ?
Si1 O1 1.633(12) . ?
Si1 Al2 2.884(12) 4_575 ?
Si1 Al1 2.902(5) . ?
Si2 O6 1.589(13) . ?
Si2 O7 1.657(14) . ?
Si2 O3 1.68(2) . ?
Si2 O2 1.716(16) 3_766 ?
Si2 O2 2.06(2) 2_756 ?
Si2 Al1 2.893(16) 2_756 ?
Si2 Al1 2.905(12) 4_575 ?
Al1 O2 1.68(3) . ?
Al1 O7 1.763(17) . ?
Al1 O1 1.764(14) . ?
Al1 O3 1.775(13) 4_576 ?
Al1 O3 1.997(19) 2_746 ?
Al1 Al1 2.958(11) 3_767 ?
Al2 O4 1.71(2) . ?
Al2 O6 1.735(14) 4_476 ?
Al2 O5 1.805(16) 4_576 ?
Al2 O8 1.922(19) 2_656 ?
Al2 O8 1.92(2) 3_667 ?
