#------------------------------------------------------------------------------
#$Date: 2021-07-04 04:49:46 +0300 (Sun, 04 Jul 2021) $
#$Revision: 266973 $
#$URL: file:///home/coder/svn-repositories/cod/cif/1/56/31/1563149.cif $
#------------------------------------------------------------------------------
#
# This file is available in the Crystallography Open Database (COD),
# http://www.crystallography.net/
#
# All data on this site have been placed in the public domain by the
# contributors.
#
data_1563149
loop_
_publ_author_name
'Gorelova, Liudmila A.'
'Pakhomova, Anna S.'
'Krzhizhanovskaya, Maria G.'
'Pankin, Dmitrii V.'
'Krivovichev, Sergey V.'
'Dubrovinsky, Leonid S.'
'Kasatkin, Anatoly V.'
_publ_section_title
;
 Crystal Structure Evolution of Slawsonite SrAl2Si2O8 and Paracelsian
 BaAl2Si2O8 upon Compression and Decompression
;
_journal_issue                   23
_journal_name_full               'The Journal of Physical Chemistry C'
_journal_page_first              13014
_journal_page_last               13023
_journal_paper_doi               10.1021/acs.jpcc.1c02949
_journal_volume                  125
_journal_year                    2021
_chemical_formula_sum            'Al2 O8 Si2 Sr'
_chemical_formula_weight         325.76
_space_group_crystal_system      monoclinic
_space_group_IT_number           14
_space_group_name_Hall           '-P 2ybc'
_space_group_name_H-M_alt        'P 1 21/c 1'
_audit_creation_method           SHELXL-2018/3
_cell_angle_alpha                90
_cell_angle_beta                 90.324(8)
_cell_angle_gamma                90
_cell_formula_units_Z            4
_cell_length_a                   8.2829(5)
_cell_length_b                   9.301(5)
_cell_length_c                   8.7479(10)
_cell_measurement_reflns_used    856
_cell_measurement_temperature    293(2)
_cell_measurement_theta_max      18.907
_cell_measurement_theta_min      2.845
_cell_volume                     673.9(4)
_computing_structure_refinement  'SHELXL-2018/3 (Sheldrick, 2018)'
_diffrn_ambient_temperature      293(2)
_diffrn_measured_fraction_theta_full 0.341
_diffrn_measured_fraction_theta_max 0.196
_diffrn_measurement_device_type
'esperanto-CrysAlisPro-abstract goniometer imported esperanto images'
_diffrn_radiation_type           synchrotron
_diffrn_radiation_wavelength     0.41106
_diffrn_reflns_av_R_equivalents  0.0544
_diffrn_reflns_av_unetI/netI     0.0632
_diffrn_reflns_Laue_measured_fraction_full 0.341
_diffrn_reflns_Laue_measured_fraction_max 0.196
_diffrn_reflns_limit_h_max       12
_diffrn_reflns_limit_h_min       -11
_diffrn_reflns_limit_k_max       6
_diffrn_reflns_limit_k_min       -4
_diffrn_reflns_limit_l_max       11
_diffrn_reflns_limit_l_min       -11
_diffrn_reflns_number            856
_diffrn_reflns_point_group_measured_fraction_full 0.341
_diffrn_reflns_point_group_measured_fraction_max 0.196
_diffrn_reflns_theta_full        14.279
_diffrn_reflns_theta_max         18.907
_diffrn_reflns_theta_min         2.845
_exptl_absorpt_coefficient_mu    2.017
_exptl_crystal_colour            colorless
_exptl_crystal_density_diffrn    3.211
_exptl_crystal_density_meas      ?
_exptl_crystal_density_method    none
_exptl_crystal_description       isosymmetric
_exptl_crystal_F_000             624
_exptl_crystal_size_max          0.010
_exptl_crystal_size_mid          0.010
_exptl_crystal_size_min          0.005
_refine_diff_density_max         0.733
_refine_diff_density_min         -0.768
_refine_diff_density_rms         0.185
_refine_ls_extinction_method     none
_refine_ls_goodness_of_fit_ref   1.201
_refine_ls_hydrogen_treatment    undef
_refine_ls_matrix_type           full
_refine_ls_number_parameters     78
_refine_ls_number_reflns         538
_refine_ls_number_restraints     0
_refine_ls_restrained_S_all      1.201
_refine_ls_R_factor_all          0.0623
_refine_ls_R_factor_gt           0.0441
_refine_ls_shift/su_max          0.000
_refine_ls_shift/su_mean         0.000
_refine_ls_structure_factor_coef Fsqd
_refine_ls_weighting_details
'w=1/[\s^2^(Fo^2^)+(0.0247P)^2^+12.5058P] where P=(Fo^2^+2Fc^2^)/3'
_refine_ls_weighting_scheme      calc
_refine_ls_wR_factor_gt          0.0922
_refine_ls_wR_factor_ref         0.1269
_reflns_Friedel_coverage         0.000
_reflns_number_gt                435
_reflns_number_total             538
_reflns_threshold_expression     'I > 2\s(I)'
_cod_data_source_file            slav_p02.cif
_cod_data_source_block           shelx
_cod_depositor_comments
;
The following automatic conversions were performed:

data item '_exptl_crystal_density_meas' value 'none' was changed to
'?' -- the value is perceived as not measured.

Automatic conversion script
Id: cif_fix_values 7556 2019-12-06 15:28:31Z antanas 

 Adding full bibliography for 1563145--1563156.cif.
;
_cod_original_sg_symbol_H-M      'P 21/c'
_cod_database_code               1563149
_shelx_shelxl_version_number     2018/3
_shelx_space_group_comment
;
The symmetry employed for this shelxl refinement is uniquely defined
by the following loop, which should always be used as a source of
symmetry information in preference to the above space-group names.
They are only intended as comments.
;
_shelx_res_file
;
TITL slav_p02_s1 in P2(1)/c
    shelx.res
    created by SHELXL-2018/3 at 13:14:54 on 19-Jan-2021
REM P2(1)/c (#14 in standard setting)
CELL 0.41106   8.282934   9.301097   8.747945  90.0000  90.3240  90.0000
ZERR    4.00   0.000540   0.005022   0.001021   0.0000   0.0080   0.0000
LATT  1
SYMM -x, y+1/2,-z+1/2
SFAC O Al Si Sr
DISP O 0.00165 0.00179 4.1539
DISP Si 0.026465 0.022605 52.36784
DISP Al 0.019188 0.016298 37.75624
DISP Sr 0.242892 1.295112 3000.317
UNIT 32.00 8.00 8.00 4.00

OMIT    -5   0   2
OMIT     2   1   1
OMIT    10   0   0
OMIT     8   3   6
OMIT    -4   1   5
OMIT    -6   1   6
OMIT     5   4   7
OMIT     6   4   7
OMIT     5   3   5
OMIT   -11   1   3
OMIT    -7   0   2
OMIT     6   4   8
OMIT     4   5   9
OMIT     1   4   6
OMIT     4   4   7
OMIT   -10   1   3
OMIT    -8   1   5
OMIT    -9   0   2
OMIT     3   5   9
OMIT   -11   1   2
OMIT    -1   2   9
OMIT     6   4  11
OMIT    -5   1   6
OMIT    -6   0   2
OMIT     8   3   7

MERG   2
FMAP   2
PLAN   100
BOND
LIST   6
ACTA
REM DAMP 50000
L.S.  20
REM EXTI    0.000000
WGHT    0.024700   12.505800
FVAR       2.53351
SR1   4    0.749569    0.410664    0.613360    11.00000    0.01019    0.02550 =
         0.01427    0.00093   -0.00011    0.00122
SI1   3    0.561046    0.421571    0.243399    11.00000    0.00876    0.02229 =
         0.00828   -0.00467   -0.00050   -0.00191
SI2   3    1.056893    0.299045    0.941394    11.00000    0.00680    0.02670 =
         0.01019   -0.00676    0.00045   -0.00144
AL1   2    1.069172    0.573623    0.764888    11.00000    0.00935    0.02767 =
         0.01603   -0.00443   -0.00068   -0.00383
AL2   2    0.428124    0.194764    0.448496    11.00000    0.00994    0.01702 =
         0.01102    0.00166   -0.00176    0.00388
O1    1    0.741155    0.425166    0.318876    11.00000    0.01350
O2    1    0.991694    0.404176    0.805655    11.00000    0.01605
O3    1    1.055186    0.134243    0.886525    11.00000    0.01146
O4    1    0.442413    0.370227    0.377432    11.00000    0.01135
O5    1    0.560752    0.310002    0.103738    11.00000    0.00931
O6    1    1.233612    0.348473    0.995564    11.00000    0.01629
O7    1    0.926249    0.307626    1.080723    11.00000    0.01594
O8    1    0.495189    0.580087    0.189252    11.00000    0.01854

HKLF 4




REM  slav_p02_s1 in P2(1)/c
REM wR2 = 0.1269, GooF = S = 1.201, Restrained GooF = 1.201 for all data
REM R1 = 0.0441 for 435 Fo > 4sig(Fo) and 0.0623 for all 538 data
REM 78 parameters refined using 0 restraints

END

WGHT      0.0245     12.5028

REM Highest difference peak  0.733,  deepest hole -0.768,  1-sigma level  0.185
Q1    1   0.7087  0.4408  0.1602  11.00000  0.05    0.73
Q2    1   1.2006  0.5727  0.8821  11.00000  0.05    0.66
Q3    1   0.6528  0.4257  0.2845  11.00000  0.05    0.64
Q4    1   0.6600  0.3410  0.5593  11.00000  0.05    0.63
Q5    1   0.3755  0.2338  0.1621  11.00000  0.05    0.62
Q6    1   0.7821  0.2846  0.5651  11.00000  0.05    0.62
Q7    1   1.2541  0.2720  0.8982  11.00000  0.05    0.60
Q8    1   1.2423  0.1496  0.8494  11.00000  0.05    0.58
Q9    1   1.2645  0.3763  0.9458  11.00000  0.05    0.57
Q10   1   0.6068  0.4582  0.6848  11.00000  0.05    0.57
Q11   1   0.6984  0.4853  0.6390  11.00000  0.05    0.56
Q12   1   1.2053  0.1139  0.9999  11.00000  0.05    0.55
Q13   1   1.2182  0.3061  1.0385  11.00000  0.05    0.54
Q14   1   0.9942  0.4532  1.0388  11.00000  0.05    0.53
Q15   1   0.2872  0.3967  0.4559  11.00000  0.05    0.52
Q16   1   0.8286  0.3132  0.4345  11.00000  0.05    0.51
Q17   1   0.9406  0.3455  1.1247  11.00000  0.05    0.51
Q18   1   0.4196  0.6715  0.1497  11.00000  0.05    0.50
Q19   1   0.7364  0.5587  0.6023  11.00000  0.05    0.50
Q20   1   0.3240  0.3906  0.2847  11.00000  0.05    0.49
Q21   1   0.4618  0.6498  0.2269  11.00000  0.05    0.49
Q22   1   0.7455  0.2594  0.2541  11.00000  0.05    0.48
Q23   1   0.6968  0.5578  0.2076  11.00000  0.05    0.48
Q24   1   0.4047  0.3467  0.2140  11.00000  0.05    0.48
Q25   1   0.9386  0.2533  1.1818  11.00000  0.05    0.47
Q26   1   0.4209  0.3946  0.2338  11.00000  0.05    0.47
Q27   1   0.8200  0.3809  0.4732  11.00000  0.05    0.47
Q28   1   1.2403  0.2397  1.0263  11.00000  0.05    0.47
Q29   1   0.9495  0.5023  0.8598  11.00000  0.05    0.46
Q30   1   0.9422  0.1097  0.9440  11.00000  0.05    0.46
Q31   1   1.2068  0.0645  0.8100  11.00000  0.05    0.45
Q32   1   0.5176  0.6140  0.3337  11.00000  0.05    0.45
Q33   1   0.7347  0.2742  0.4640  11.00000  0.05    0.45
Q34   1   1.0958  0.1123  0.8250  11.00000  0.05    0.45
Q35   1   0.4271  0.2369  0.2740  11.00000  0.05    0.45
Q36   1   0.8180  0.4434  0.7277  11.00000  0.05    0.45
Q37   1   1.1186  0.0683  0.8463  11.00000  0.05    0.44
Q38   1   0.7688  0.4658  0.7529  11.00000  0.05    0.44
Q39   1   0.5435  0.6551  0.1446  11.00000  0.05    0.44
Q40   1   0.4828  0.3411  0.1676  11.00000  0.05    0.44
Q41   1   0.4303  0.2945  0.2912  11.00000  0.05    0.44
Q42   1   1.0987  0.2945  0.7913  11.00000  0.05    0.44
Q43   1   0.8530  0.4356  0.7120  11.00000  0.05    0.44
Q44   1   0.9375  0.2545  0.8967  11.00000  0.05    0.43
Q45   1   0.3565  0.5634  0.2243  11.00000  0.05    0.43
Q46   1   0.3000  0.3491  0.2233  11.00000  0.05    0.43
Q47   1   0.7191  0.3198  0.4345  11.00000  0.05    0.43
Q48   1   1.1640  0.2815  0.9353  11.00000  0.05    0.43
Q49   1   0.7235  0.5493  0.3081  11.00000  0.05    0.43
Q50   1   0.7540  0.3488  0.2959  11.00000  0.05    0.42
Q51   1   1.3628  0.3507  1.0991  11.00000  0.05    0.42
Q52   1   1.1109  0.2578  0.7766  11.00000  0.05    0.42
Q53   1   0.8469  0.2571  1.2216  11.00000  0.05    0.42
Q54   1   1.1633  0.6319  0.8332  11.00000  0.05    0.42
Q55   1   1.0191  0.0450  0.8734  11.00000  0.05    0.42
Q56   1   0.5178  0.2908  0.2474  11.00000  0.05    0.42
Q57   1   0.7628  0.5133  0.5806  11.00000  0.05    0.41
Q58   1   1.0651  0.4325  0.9822  11.00000  0.05    0.41
Q59   1   0.9069  0.3427  1.0462  11.00000  0.05    0.41
Q60   1   0.9047  0.4590  0.9988  11.00000  0.05    0.41
Q61   1   1.1640  0.3742  0.6692  11.00000  0.05    0.41
Q62   1   0.6706  0.4271  0.0877  11.00000  0.05    0.40
Q63   1   0.4611  0.3242  0.0661  11.00000  0.05    0.40
Q64   1   0.3590  0.2734  0.3517  11.00000  0.05    0.40
Q65   1   0.9879  0.2770  0.9893  11.00000  0.05    0.39
Q66   1   1.0047  0.2381  1.1443  11.00000  0.05    0.39
Q67   1   0.8789  0.4234  1.0139  11.00000  0.05    0.39
Q68   1   1.0137  0.0867  1.0582  11.00000  0.05    0.39
Q69   1   1.1257  0.6558  0.7301  11.00000  0.05    0.39
Q70   1   0.3587  0.6456  0.2657  11.00000  0.05    0.39
Q71   1   0.3829  0.3919  0.3822  11.00000  0.05    0.39
Q72   1   0.8768  0.4761  0.8918  11.00000  0.05    0.38
Q73   1   0.5618  0.2365  0.2298  11.00000  0.05    0.38
Q74   1   0.7984  0.3197  1.0038  11.00000  0.05    0.38
Q75   1   1.1584  0.3645  1.1822  11.00000  0.05    0.37
Q76   1   0.7404  0.3002  0.1077  11.00000  0.05    0.37
Q77   1   0.7353  0.6482  0.3630  11.00000  0.05    0.37
Q78   1   1.2214  0.3189  0.7927  11.00000  0.05    0.37
Q79   1   0.5766  0.3566  0.6251  11.00000  0.05    0.37
Q80   1   0.6976  0.2203  0.3735  11.00000  0.05    0.37
Q81   1   0.4667  0.4405  0.3244  11.00000  0.05    0.37
Q82   1   0.6027  0.4999  0.1497  11.00000  0.05    0.37
Q83   1   1.0959  0.5642  0.8944  11.00000  0.05    0.37
Q84   1   0.6930  0.2307  0.1602  11.00000  0.05    0.37
Q85   1   1.0623  0.4384  0.6463  11.00000  0.05    0.37
Q86   1   1.1129  0.1324  1.0653  11.00000  0.05    0.36
Q87   1   1.1395  0.1438  0.8911  11.00000  0.05    0.36
Q88   1   1.1419  0.2730  1.1048  11.00000  0.05    0.36
Q89   1   0.8207  0.4851  0.4190  11.00000  0.05    0.35
Q90   1   1.0127  0.2048  1.1255  11.00000  0.05    0.35
Q91   1   1.1338  0.1963  0.7949  11.00000  0.05    0.35
Q92   1   0.4663  0.2422  0.1134  11.00000  0.05    0.35
Q93   1   1.1331  0.2491  0.9538  11.00000  0.05    0.34
Q94   1   0.5380  0.5077  0.0586  11.00000  0.05    0.34
Q95   1   0.8634  0.3334  0.7588  11.00000  0.05    0.34
Q96   1   0.6492  0.3219  0.1430  11.00000  0.05    0.34
Q97   1   0.8979  0.5065  0.7354  11.00000  0.05    0.34
Q98   1   0.8970  0.1798  1.1199  11.00000  0.05    0.33
Q99   1   0.6035  0.3648 -0.0389  11.00000  0.05    0.33
Q100  1   0.7938  0.4455  0.4360  11.00000  0.05    0.33
;
_shelx_res_checksum              31057
_shelx_hkl_file
;
   0  -1  -3 31043.7 889.989   1
   0  -1  -4 134.762 50.3461   1
   0  -1  -5 88407.5 2330.20   1
   0  -1  -6 43488.8 1419.38   1
   0  -1  -7 20299.9 917.554   1
   0  -1  -8 16730.6 844.997   1
   0  -1  -9 11351.3 694.109   1
   0   2   4 8.37986 17.1626   1
   0   2   5 5402.48 307.596   1
   0  -2  -6 11.4975 30.0470   1
   0  -2  -7 2947.61 268.934   1
   0  -2  -8 22178.4 876.797   1
   0  -2  -9 2661.47 269.069   1
   0  -2 -10 2685.10 293.572   1
   0   3   5 759.634 106.999   1
   0   3   6 8597.98 489.905   1
   0   3   7 7484.13 431.613   1
   0   4   6 1742.94 197.709   1
   0   4   7 18057.2 800.142   1
   0   4   8 19201.2 783.600   1
   0   5   7-5.02332 10.7637   1
   0   5   8 3044.61 305.721   1
   1   0   1 1.24520 2.51598   1
  -1   0  -1 4.14999 10.9629   1
  -1   0  -2 246177. 7500.73   1
   1   0   2 461526. 7617.23   1
  -1   0  -3 7.58329 23.6345   1
  -1   0  -4 51774.2 1698.37   1
   1  -1  -7 28926.0 1024.41   1
   1  -1  -6 2257.16 211.676   1
   1  -1  -5 16212.8 559.877   1
   1   1   2 13305.8 571.507   1
  -1  -1  -3 75886.1 2071.02   1
   1   1   3 77032.4 2109.79   1
  -1  -1  -4 22435.1 937.961   1
   1   1   4 25193.8 948.217   1
   1   1   5 24898.9 1040.89   1
  -1  -1  -5 28415.8 1114.81   1
  -1  -1  -6 9195.36 631.528   1
  -1  -1  -7 20273.2 1021.64   1
  -1  -1  -8 6001.95 536.232   1
  -1  -1  -9 8.50892 7.36885   1
  -1  -1 -10 2750.42 396.155   1
   1  -2  -9 9.37624 17.1813   1
   1  -2  -8 5289.61 319.932   1
   1  -2  -7 12.7072 34.4275   1
   1   2   3 608.249 115.399   1
   1   2   4 625.493 126.787   1
  -1  -2  -5 11687.3 641.938   1
   1   2   5 13359.2 701.137   1
  -1  -2  -6 9622.01 583.040   1
   1   2   6 8067.57 523.723   1
  -1  -2  -7 6363.66 473.855   1
  -1  -2  -8 1161.84 202.945   1
  -1  -2  -9 4663.47 455.131   1
  -1  -2 -10 6154.99 527.869   1
   1   3   5 6541.00 459.354   1
   1   3   6 16150.5 835.395   1
   1   3   7 1011.08 196.654   1
   1   3   8 15074.7 816.172   1
  -1   4   6 21029.9 684.886   1
   1   4   6 222.391 114.715   1
   1   4   7 4081.65 406.518   1
   1   4   8 4841.56 463.082   1
  -1   5   7 9297.52 435.448   1
   1   5   8 7869.17 586.937   1
   1   5   9 868.353 187.692   1
   2   0  -1-3.99848 10.4931   1
  -2   0   0 29905.4 990.594   1
   2   0   0 27714.5 1012.90   1
  -2   0  -1 0.69315 14.5520   1
   2   0   1-9.64635 23.3669   1
  -2   0  -2 20367.4 939.871   1
   2   0   2 22350.7 963.154   1
  -2   0  -3-1.94442 30.0432   1
   2   0   3-9.80694 32.4184   1
   2   0   4 52544.3 1857.62   1
  -2   0  -4 56536.9 1943.07   1
  -2   0  -5 6.35472 24.3573   1
  -2   0  -6 6335.67 613.917   1
  -2   0  -7-16.9774 18.7104   1
  -2   1   2 57956.7 1506.39   1
   2  -1  -2 59192.6 1530.32   1
   2  -1  -1 77746.7 2005.43   1
  -2   1   1 70968.8 1960.91   1
  -2   1   0-6.85619 26.7098   1
   2  -1   0 2.27810 13.3677   1
   2  -1   1 182.940 122.344   1
   2   1   1-8.09797 41.5486   1
  -2  -1  -2 73312.2 2140.09   1
   2   1   2 73750.4 2145.78   1
  -2  -1  -3 60967.2 1957.33   1
  -2  -1  -4 12419.2 731.342   1
   2   1   4 12246.5 756.315   1
  -2  -1  -5 5854.45 512.169   1
   2   1   5 4828.41 477.816   1
  -2  -1  -6 2213.15 324.897   1
   2   1   6 1924.12 311.560   1
  -2  -1  -7 3549.63 432.872   1
  -2  -1  -8 760.190 212.630   1
  -2  -1  -9 7337.98 672.430   1
  -2  -1 -10 806.295 225.943   1
  -2   2   2 27342.6 812.221   1
   2   2   3 41814.1 1433.47   1
   2   2   4 32795.9 1304.28   1
  -2  -2  -5 4017.86 406.157   1
   2   2   5 4358.28 447.715   1
  -2  -2  -6 4047.71 419.745   1
   2   2   6 4660.85 490.032   1
  -2  -2  -7 95842.6 2810.64   1
   2   2   7 90642.4 2796.84   1
   2   2   8 555.096 170.623   1
  -2  -2  -8 677.568 184.615   1
  -2  -2  -9 8891.39 682.401   1
  -2  -2 -10-54.1721 65.0617   1
  -2  -2 -11 10493.6 780.390   1
   2   3   5 4571.75 438.717   1
   2   3   6 67139.2 2294.12   1
   2   3   7 7005.78 616.531   1
   2   3   8 9090.26 713.217   1
   2   3   9 4675.14 512.394   1
   2   4   6-5.11446 0.10725   1
   2   4   7 26499.3 1275.46   1
   2   4   8 2433.07 352.151   1
   2   4   9 5714.70 570.888   1
   2   5   8 9.88778 12.9754   1
   2   5   9 32031.5 1478.64   1
   3   0  -1 4.63320 23.3991   1
  -3   0   0 13.4751 5.10573   1
   3   0   0-2.67354 7.63914   1
  -3   0  -1 5.02521 29.8391   1
   3   0   1-1.06958 21.4985   1
   3   0   2 4543.57 493.165   1
  -3   0  -2 5623.47 498.384   1
  -3   0  -3 18.8657 54.9658   1
   3   0   3 21.7756 39.5581   1
   3   0   4 1727.97 300.490   1
  -3   0  -4 2288.21 365.740   1
   3   0   5 35.0926 60.1015   1
  -3   0  -5-7.92706 27.1777   1
  -3   0  -6 78629.0 2816.51   1
  -3   0  -7 3.74548 93.5897   1
  -3   0  -8 149.105 126.976   1
   3  -1  -4 34345.2 1066.15   1
   3  -1  -3 8494.40 460.356   1
  -3   1   2 24886.2 954.252   1
   3  -1  -2 27287.8 1004.23   1
   3  -1  -1 70105.2 2089.38   1
  -3   1   1 71174.7 2079.06   1
  -3   1   0 39093.2 1429.41   1
   3  -1   0 36936.8 1453.55   1
   3  -1   1 53836.2 1843.92   1
   3   1   1 52265.8 1774.44   1
   3   1   2 8902.06 647.504   1
  -3  -1  -2 9221.57 679.769   1
  -3   1  -2 9725.20 693.564   1
   3  -1   2 9160.37 641.757   1
  -3  -1  -3 11484.7 751.426   1
   3   1   3 11754.2 813.105   1
   3  -1   3 11286.8 793.690   1
  -3   1  -3 12640.6 886.161   1
  -3   1  -4 52264.4 2129.14   1
   3   1   4 51385.7 1998.26   1
   3   1   5 13591.6 963.570   1
  -3  -1  -5 13080.6 888.796   1
  -3  -1  -6 1498.94 284.788   1
   3   1   6 907.782 244.167   1
  -3  -1  -7 51083.4 2126.71   1
   3   1   7 53857.8 2166.52   1
  -3  -1  -8 1351.89 294.906   1
  -3  -1  -9 4495.18 573.656   1
  -3  -1 -10-29.8865 37.5498   1
   3  -2  -4 41446.3 1187.26   1
   3  -2  -3 65649.1 1797.81   1
  -3   2   3 65268.5 1781.68   1
   3  -2  -2 55958.1 1695.65   1
  -3   2   2 53204.4 1640.56   1
  -3   2   1 78295.6 2293.66   1
   3  -2  -1 80558.6 2360.28   1
  -3   2   0 298.118 94.2634   1
   3   2   3 58649.2 2014.44   1
   3   2   4 50343.9 1861.06   1
  -3  -2  -4 47644.7 1872.09   1
   3   2   5 19340.9 1146.47   1
  -3  -2  -5 21125.6 1113.15   1
  -3  -2  -6 3229.81 415.313   1
   3   2   6 3834.81 468.398   1
  -3  -2  -7 2612.09 383.086   1
   3   2   7 2862.67 416.235   1
   3   2   8 486.031 173.002   1
  -3  -2  -8 536.476 172.168   1
  -3  -2  -9 58431.8 2244.08   1
  -3  -2 -10 82.3114 62.6531   1
  -3  -2 -11 142.623 97.6631   1
  -3   3   4 194786. 4478.67   1
  -3   3   3 28132.6 985.115   1
   3   3   5 9052.25 707.012   1
   3   3   6 1192.03 286.621   1
   3   3   7 1074.63 230.868   1
   3   3   8 9074.05 817.958   1
   3   3   9 2918.82 443.811   1
   3   3  10 30335.9 1609.10   1
  -3   4   5 3322.76 234.073   1
   3   4   6 6.30370 31.5028   1
   3   4   7 6458.53 624.112   1
   3   4   8 90.1516 98.6318   1
   3   4   9 3049.01 454.020   1
   3   4  10 49.1197 81.2273   1
   3   5   8-33.9710 63.6212   1
   3   5   9 121.910 105.691   1
   3   5  10 138.040 70.5417   1
   4   0  -2-1.04355 10.9539   1
   4   0  -1-3.36875 13.6107   1
   4   0   0 208623. 5322.57   1
  -4   0   0 206130. 5314.68   1
   4   0   1-1.40375 8.50716   1
  -4   0  -1 1.28294 0.00550   1
  -4   0  -2 65.9719 63.8808   1
   4   0   2 46.5339 56.0911   1
   4   0   3-1.68186 42.0262   1
  -4   0  -3 26.0223 13.1228   1
  -4   0  -4 34807.1 1667.02   1
   4   0   4 34249.6 1690.13   1
  -4   0  -5 44.4690 55.0119   1
   4   0   5-1.61926 40.4627   1
   4   0   6 257.630 115.946   1
  -4   0  -6 424.176 173.660   1
  -4   0  -7 2.19630 70.4315   1
  -4   0  -8 5122.84 679.837   1
  -4   0  -9 49.6373 106.240   1
   4  -1  -5 271.447 123.563   1
   4  -1  -4 9126.24 559.493   1
   4  -1  -3 12331.4 672.831   1
   4  -1  -2 10464.3 657.234   1
  -4   1   2 9792.26 615.463   1
  -4   1   1 22843.2 1088.44   1
   4  -1   0 42.8271 37.8280   1
  -4   1   0 58.2841 52.4024   1
   4   1   1 22973.4 1169.92   1
  -4   1  -1 22787.2 1162.72   1
   4  -1   1 22515.1 1251.64   1
   4   1   2 2961.88 400.046   1
  -4   1  -2 3284.51 428.306   1
  -4  -1  -2 3578.07 431.064   1
   4  -1   2 2845.06 401.224   1
   4   1   3 12566.0 899.976   1
  -4  -1  -3 12341.6 851.352   1
  -4   1  -3 11282.5 893.023   1
   4  -1   3 11098.0 821.677   1
  -4  -1  -4 2678.45 426.434   1
   4   1   4 2306.02 416.519   1
  -4   1  -4 3337.48 465.947   1
   4  -1   4 2697.30 449.404   1
   4   1   5 39848.3 1935.14   1
  -4   1  -5 35988.2 1915.59   1
  -4  -1  -5 39369.9 1800.81   1
  -4  -1  -6 19032.8 1248.19   1
   4   1   6 19950.9 1259.06   1
  -4  -1  -7 565.122 206.007   1
   4   1   7 403.180 186.476   1
  -4  -1  -8 589.779 188.563   1
   4   1   8 371.958 193.788   1
  -4  -1  -9 17161.2 1225.30   1
  -4  -1 -10 2994.30 488.327   1
   4  -2  -6 29.7993 21.5625   1
   4  -2  -5 7700.42 441.949   1
   4  -2  -4 6700.84 447.224   1
  -4   2   3 13036.1 669.976   1
   4  -2  -3 12427.1 683.330   1
   4  -2  -2 622.718 150.255   1
  -4   2   2 454.355 109.719   1
  -4   2   1 30161.9 1257.43   1
   4  -2  -1 26945.0 1146.11   1
  -4   2   0 26741.4 1241.43   1
   4  -2   0 26585.2 1253.59   1
  -4   2  -1 44922.4 1791.11   1
   4  -2   1 43532.7 1820.43   1
   4  -2   2 855.041 236.396   1
  -4   2  -2 868.828 242.284   1
   4   2   3 30714.6 1455.75   1
  -4  -2  -4 17276.7 1067.27   1
   4   2   4 13358.5 956.187   1
   4   2   5 973.589 280.874   1
  -4  -2  -5 1478.22 279.193   1
   4   2   6 576.312 217.786   1
  -4  -2  -6 506.374 189.138   1
  -4  -2  -7 20722.3 1300.28   1
   4   2   7 23831.7 1476.67   1
  -4  -2  -8 67.6657 96.6890   1
   4   2   8 167.918 132.360   1
  -4  -2  -9 13.5988 28.8386   1
   4   2   9-22.6926 91.2235   1
  -4  -2 -10 5308.04 644.890   1
  -4  -2 -11 9412.90 895.099   1
  -4   3   4 15025.9 703.534   1
  -4   3   3 672.820 147.990   1
  -4   3   2 21628.2 997.638   1
  -4   3   1 73.9134 57.7155   1
   4   3   5 3355.27 458.512   1
   4   3   6 48266.3 2093.58   1
   4   3   7 150.008 108.895   1
   4   3   8 3180.91 546.176   1
   4   3   9 87.3711 12.7395   1
   4   3  10 6566.21 780.427   1
  -4   4   5 1705.46 194.356   1
  -4   4   4 9395.36 554.355   1
   4   4   6 20.9128 42.4633   1
   4   4   7 2068.80 380.897   1
   4   4   8 3037.82 486.838   1
   4   4   9 809.705 280.744   1
   4   4  10 5301.15 646.691   1
   4   4  11 5761.52 726.249   1
  -4   5   6 4541.25 301.449   1
   4   5   9 1.82249 22.0898   1
   4   5  10-55.6492 114.473   1
  -4   6   7 35.4957 24.1100   1
   5   0  -2-30.6001 46.1741   1
   5   0  -1 14.8075 20.0684   1
   5   0   0 6.23883 31.3529   1
  -5   0   0 34.0163 55.2536   1
  -5   0  -1 7.68712 30.9042   1
   5   0   1 32.3971 68.1189   1
  -5   0  -2 225789. 6125.81   1
   5   0   2 228698. 6208.85   1
  -5   0  -3 98.9518 113.587   1
   5   0   3 21.9556 48.4009   1
   5   0   4 63161.2 2669.38   1
  -5   0  -4 62502.7 2540.95   1
  -5   0  -5 53.9265 111.693   1
   5   0   5 6.55541 0.62084   1
  -5   0  -6 9519.79 909.954   1
   5   0   6 7587.99 843.413   1
  -5   0  -7-27.4536 40.0176   1
   5   0   7 28.6969 61.2328   1
  -5   0  -8 15297.9 1290.00   1
  -5   0  -9-30.0269 100.629   1
   5  -1  -6-4.44530 0.09322   1
   5  -1  -5 41996.4 1525.84   1
   5  -1  -4 13957.1 800.108   1
   5  -1  -3 69981.7 2269.52   1
   5  -1  -2 34506.9 1501.09   1
  -5   1   2 32659.6 1415.73   1
   5  -1  -1 523.476 164.469   1
  -5   1   1 609.695 166.752   1
  -5   1   0 4814.91 522.269   1
   5  -1   0 4113.90 527.100   1
   5   1   1 81.8045 86.4971   1
  -5   1  -1 196.454 91.1666   1
   5  -1   1 261.403 141.109   1
   5   1   2 14818.1 1082.28   1
  -5  -1  -2 17311.7 1102.83   1
   5  -1   2 16910.9 1132.96   1
  -5   1  -2 14980.5 1050.00   1
  -5  -1  -3 55859.3 2280.88   1
   5   1   3 60089.6 2426.98   1
  -5   1  -3 52698.2 2330.66   1
   5  -1   3 52818.2 2294.24   1
  -5   1  -4 3008.22 528.665   1
   5   1   4 2773.03 476.724   1
   5  -1   4 2888.10 472.432   1
  -5  -1  -4 2993.44 462.206   1
  -5  -1  -5 39086.4 1966.00   1
   5   1   5 42725.0 2108.29   1
  -5   1  -5 43982.1 2191.42   1
   5  -1   5 39039.5 2083.39   1
  -5  -1  -6 995.666 283.592   1
  -5   1  -6 1048.61 343.646   1
   5   1   6 841.282 292.603   1
  -5  -1  -7 14336.3 1166.85   1
   5   1   7 12739.7 1068.80   1
  -5  -1  -8 16384.9 1281.91   1
   5   1   8 15545.7 1286.33   1
  -5  -1  -9 53.1122 68.5513   1
   5   1   9 19.4311 92.1450   1
  -5  -1 -10 5934.91 775.581   1
  -5  -1 -11 19265.7 1454.37   1
   5  -2  -7 2991.07 261.679   1
   5  -2  -6 8766.04 521.166   1
   5  -2  -5 5142.55 409.701   1
   5  -2  -4 4466.80 427.116   1
  -5   2   3 24.7624 32.6235   1
   5  -2  -3-30.8040 56.0783   1
  -5   2   2 301.576 125.742   1
   5  -2  -2 402.055 144.644   1
  -5   2   1 42311.9 1689.41   1
   5  -2  -1 39158.1 1702.04   1
   5  -2   0 1727.24 325.310   1
  -5   2   0 2539.17 371.744   1
  -5   2  -1 20707.9 1228.69   1
   5  -2   1 20739.8 1216.72   1
  -5   2  -2 413.814 173.684   1
   5  -2   2 210.548 115.704   1
  -5   2  -3-10.0132 29.7335   1
   5   2   3-57.9070 102.878   1
   5  -2   3 10.4918 81.4282   1
  -5  -2  -4 9987.23 881.705   1
   5   2   4 9240.70 835.988   1
   5   2   5 19000.1 1282.32   1
  -5  -2  -5 14541.7 1124.82   1
  -5  -2  -6 13369.9 1045.47   1
   5   2   6 12850.7 1105.40   1
  -5  -2  -7 278.889 121.977   1
   5   2   7 51.7766 60.8913   1
  -5  -2  -8 3429.94 547.835   1
   5   2   8 2958.36 533.837   1
  -5  -2  -9 371.174 152.016   1
   5   2   9 126.320 141.714   1
  -5  -2 -10 7786.92 872.801   1
   5   2  10 7568.68 914.452   1
  -5  -2 -11 89.5213 136.480   1
  -5   3   4 879.818 164.932   1
  -5   3   3 5355.19 487.296   1
   5  -3  -3 5822.56 521.742   1
   5  -3  -2 5299.79 547.166   1
  -5   3   2 5343.45 517.393   1
  -5   3   1 1483.02 276.220   1
  -5   3   0 134706. 3940.58   1
   5   3   5 22.2008 65.3784   1
   5   3   6 21094.8 1395.38   1
   5   3   7 4120.82 594.558   1
   5   3   8 7096.85 841.421   1
   5   3   9 281.927 159.429   1
   5   3  10 240.963 163.998   1
   5   3  11 1959.67 462.452   1
  -5   4   5 38483.5 1348.54   1
  -5   4   4-28.9745 32.6128   1
  -5   4   3 33958.7 1380.52   1
   5   4   7 138.827 115.535   1
   5   4   8 3793.97 548.197   1
   5   4   9 12872.6 1119.19   1
   5   4  10 8039.71 873.168   1
   5   4  11 3932.52 596.770   1
  -5   5   6 1631.66 196.118   1
  -5   5   5 1923.70 281.124   1
   5   5  10-64.4382 135.228   1
   6   0  -2 8.98098 32.6571   1
   6   0  -1 36.2248 39.5843   1
  -6   0   0 259258. 6866.08   1
   6   0   0 256181. 6918.60   1
  -6   0  -1-7.61400 48.9424   1
   6   0   1 23.6811 65.2342   1
   6   0   2 2974.04 512.501   1
  -6   0  -2 3172.61 470.839   1
  -6   0  -3-11.0189 29.8641   1
   6   0   3 2.35621 14.2797   1
  -6   0  -4 19881.1 1408.40   1
   6   0   4 19398.7 1502.00   1
   6   0   5 82.9110 101.763   1
  -6   0  -5-20.5483 89.4221   1
  -6   0  -6 49828.6 2567.15   1
   6   0   6 50386.1 2417.52   1
   6   0   7 2.95142 17.8874   1
  -6   0  -7 14.4565 52.5668   1
  -6   0  -8 21985.6 1641.21   1
   6   0   8 19100.7 1584.86   1
  -6   0  -9 88.5950 166.075   1
   6  -1  -6 9.25836 34.3599   1
   6  -1  -5 13978.4 868.613   1
   6  -1  -4 1853.94 319.247   1
   6  -1  -3 37048.9 1655.85   1
  -6   1   2 10649.9 834.109   1
   6  -1  -2 10780.5 870.135   1
  -6   1   1 19812.3 1173.05   1
   6  -1  -1 18568.1 1192.05   1
   6  -1   0 4231.43 564.302   1
  -6   1   0 4323.66 548.788   1
  -6   1  -1 9260.85 819.355   1
   6   1   1 8898.98 855.566   1
   6  -1   1 8229.95 850.608   1
  -6  -1  -2 3922.86 554.813   1
  -6   1  -2 3807.80 532.436   1
   6   1   2 2801.49 513.611   1
   6  -1   2 3667.94 543.801   1
  -6   1  -3 18511.6 1323.59   1
   6   1   3 21402.4 1441.18   1
   6  -1   3 19053.0 1370.08   1
  -6  -1  -3 20864.8 1381.35   1
  -6  -1  -4 3222.42 513.703   1
   6   1   4 3790.24 595.431   1
   6  -1   4 2690.71 478.036   1
  -6   1  -4 3143.69 548.354   1
  -6  -1  -5 16434.4 1245.37   1
   6   1   5 17211.8 1355.45   1
  -6   1  -5 18175.6 1380.92   1
   6  -1   5 15125.0 1314.70   1
  -6  -1  -6 8817.54 911.160   1
  -6   1  -6 8153.97 958.005   1
   6   1   6 7242.64 916.034   1
   6  -1   6 7370.61 940.054   1
  -6  -1  -7 6288.64 792.416   1
  -6   1  -7 6553.35 912.129   1
   6   1   7 6083.67 818.704   1
  -6  -1  -8 10255.5 1068.11   1
   6   1   8 9425.51 1019.88   1
  -6  -1  -9 5782.73 800.090   1
   6   1   9 5651.40 871.214   1
  -6  -1 -10 3077.86 586.809   1
  -6  -1 -11 2677.31 545.700   1
   6  -2  -7 3409.56 320.125   1
   6  -2  -6 1933.27 248.893   1
   6  -2  -5 2381.95 316.298   1
   6  -2  -4 3960.83 439.608   1
  -6   2   3 48465.1 1871.87   1
   6  -2  -3 49161.8 1966.56   1
  -6   2   2 13167.0 918.252   1
   6  -2  -2 15254.4 1033.31   1
   6  -2  -1 2883.32 442.538   1
  -6   2   1 3509.20 470.442   1
   6  -2   0 768.200 256.660   1
  -6   2   0 649.115 187.678   1
   6  -2   1 64.5276 48.7200   1
  -6   2  -1 60.5139 62.7851   1
  -6   2  -2 11139.5 948.320   1
   6  -2   2 9654.14 912.447   1
  -6   2  -3 73778.4 2574.60   1
   6  -2   3 75812.8 2683.74   1
  -6   2  -4-25.8641 87.2722   1
   6   2   4-27.2438 88.1003   1
   6  -2   4 114.789 150.899   1
  -6  -2  -5 3758.45 597.141   1
   6   2   5 3094.77 556.039   1
  -6  -2  -6-12.2815 78.7714   1
   6   2   6 62.5855 31.6122   1
   6   2   7 3546.17 615.646   1
  -6  -2  -7 2782.81 539.798   1
  -6  -2  -8 16083.0 1324.59   1
   6   2   8 13172.3 1244.81   1
  -6  -2  -9 102.690 100.921   1
   6   2   9-32.5916 52.6354   1
  -6  -2 -10 87.8282 80.5915   1
   6   2  10 218.769 176.581   1
  -6  -2 -11 5844.11 793.798   1
   6  -3  -5 735.596 175.537   1
  -6   3   4 3299.84 388.421   1
   6  -3  -4 2678.94 360.665   1
  -6   3   3 8370.55 687.964   1
   6  -3  -3 7673.84 671.394   1
  -6   3   2 35413.2 1588.11   1
   6  -3  -2 34072.5 1629.16   1
  -6   3   1 7612.06 717.965   1
   6  -3  -1 7898.82 759.318   1
  -6   3   0 1.75001 39.6826   1
   6  -3   0-8.04482 51.7117   1
   6  -3   1 6979.37 838.499   1
  -6   3  -1 6513.17 724.055   1
   6   3   5 39.6898 132.962   1
   6   3   6 2026.76 466.626   1
   6   3   7 3965.99 599.341   1
   6   3   8 13064.7 1198.77   1
   6   3   9 2673.78 533.241   1
   6   3  10 8438.88 920.389   1
   6   3  11 116.465 145.300   1
  -6   4   5 26410.4 1158.01   1
  -6   4   4 10149.5 728.495   1
  -6   4   3 32439.2 1470.81   1
  -6   4   2 17.4498 31.7765   1
   6   4   7-42.3905 139.111   1
   6   4   8 66.4487 111.413   1
   6   4   9 108.693 92.8141   1
   6   4  10 1041.33 306.592   1
   6   4  11 934.769 281.415   1
  -6   5   6 602.606 145.490   1
  -6   5   5 12321.8 778.720   1
  -6   5   4 24.6952 45.9326   1
  -6   6   6 7900.83 589.097   1
   7   0  -2-4.29281 29.0867   1
   7   0  -1 4.47261 44.9495   1
  -7   0   0 39.8230 73.4425   1
   7   0   0 42.6550 105.537   1
   7   0   1-52.2657 94.1963   1
  -7   0  -1-11.5001 39.4292   1
  -7   0  -2 18310.7 1359.87   1
   7   0   2 19800.0 1456.36   1
  -7   0  -3 2.47115 21.1805   1
   7   0   3-24.8232 76.5988   1
  -7   0  -4 1615.94 414.087   1
   7   0   4 1199.11 371.705   1
   7   0   5 92.3133 166.801   1
  -7   0  -5 37.9443 98.4969   1
  -7   0  -6 22924.1 1689.03   1
   7   0   6 18497.9 1537.46   1
   7   0   7-65.6068 56.2317   1
  -7   0  -7 10.0432 116.550   1
   7   0   8 5034.57 881.263   1
  -7   0  -8 6269.44 911.321   1
  -7   0  -9 88.0424 70.3277   1
   7  -1  -5-15.7575 34.4330   1
   7  -1  -4 13930.7 990.740   1
   7  -1  -3 10004.9 879.571   1
   7  -1  -2 1840.44 383.415   1
  -7   1   1 14926.6 1101.93   1
   7  -1  -1 13580.5 1099.00   1
  -7   1   0 14749.0 1071.24   1
   7  -1   0 14090.9 1126.50   1
  -7   1  -1 6774.75 744.090   1
   7  -1   1 7180.81 830.145   1
  -7  -1  -2 1579.18 375.408   1
  -7   1  -2 1115.90 316.619   1
   7   1   2 1074.80 298.629   1
   7  -1   2 919.729 333.683   1
  -7  -1  -3 13894.5 1213.54   1
  -7   1  -3 13758.7 1224.62   1
   7   1   3 14752.1 1265.48   1
   7  -1   3 13673.9 1249.20   1
  -7  -1  -4 14477.5 1268.50   1
  -7   1  -4 14422.6 1278.42   1
   7   1   4 14976.2 1301.08   1
   7  -1   4 12612.1 1200.64   1
   7  -1   5 766.934 300.944   1
  -7  -1  -5 495.941 217.842   1
   7   1   5 134.621 122.140   1
  -7   1  -5 758.129 297.989   1
   7  -1   6 4531.73 792.181   1
  -7  -1  -6 5462.97 779.491   1
  -7   1  -6 5453.44 826.369   1
   7   1   6 4240.09 747.869   1
  -7  -1  -7 19223.0 1503.62   1
  -7   1  -7 18064.1 1592.08   1
   7   1   7 18116.7 1513.30   1
   7  -1   7 18339.3 1647.20   1
  -7  -1  -8 153.658 159.020   1
   7   1   8 77.2146 102.560   1
  -7  -1  -9 360.102 244.157   1
   7   1   9 539.056 280.074   1
   7  -2  -7 1380.35 233.265   1
   7  -2  -6 2997.67 371.189   1
   7  -2  -5 13554.0 889.133   1
   7  -2  -4 2818.29 410.875   1
  -7   2   3 18842.9 1161.25   1
   7  -2  -3 17776.9 1164.23   1
   7  -2  -2 11485.5 986.709   1
  -7   2   2 10819.1 885.567   1
  -7   2   1 26022.5 1493.25   1
   7  -2  -1 25257.6 1507.50   1
   7  -2   0 54.7711 99.3635   1
  -7   2   0-155.156 123.200   1
  -7   2  -1 22835.0 1451.33   1
   7  -2   1 20435.6 1430.12   1
  -7   2  -2 7223.12 835.319   1
   7  -2   2 7063.26 796.331   1
  -7   2  -3 12310.9 1108.54   1
   7  -2   3 12398.0 1131.99   1
   7  -2   4 3245.10 655.738   1
  -7   2  -4 3294.48 630.618   1
   7   2   4 3621.91 616.327   1
   7  -2   5 9994.63 1134.95   1
  -7  -2  -5 11495.4 1095.34   1
  -7   2  -5 10613.2 1217.12   1
   7   2   5 8869.73 1020.23   1
  -7  -2  -6 2498.51 513.634   1
   7   2   6 1926.57 460.578   1
  -7  -2  -7 3638.03 650.668   1
   7   2   7 3199.73 645.495   1
   7   2   8 99.4799 75.4079   1
  -7  -2  -8 237.185 186.713   1
  -7  -2  -9 17246.7 1445.62   1
   7   2   9 12982.0 1250.02   1
   7  -3  -6 442.758 127.746   1
   7  -3  -5 20.1843 28.7851   1
  -7   3   4 49449.5 1920.42   1
   7  -3  -4 45874.2 1844.40   1
  -7   3   3 2415.26 394.109   1
   7  -3  -3 2161.07 359.735   1
   7  -3  -2 1630.69 336.271   1
  -7   3   2 1763.83 349.939   1
   7  -3  -1 196.603 130.969   1
  -7   3   1 52.2742 66.0197   1
  -7   3   0 23262.3 1417.43   1
   7  -3   0 23276.7 1526.42   1
   7  -3   1-2.56027 67.6330   1
  -7   3  -1-2.34290 56.7949   1
  -7   3  -2 553.801 257.662   1
   7  -3   2 260.087 161.966   1
   7   3   5 38.9286 64.8532   1
   7   3   6 86.7927 135.557   1
   7   3   7-31.4045 71.3409   1
   7   3   8 11229.9 1167.88   1
   7   3   9-27.9781 88.3676   1
  -7   4   5 5281.62 515.802   1
  -7   4   4 824.799 217.312   1
  -7   4   3 5907.98 625.025   1
  -7   4   2 4396.45 557.193   1
  -7   4   1 16319.6 1152.85   1
   7   4   8 101.828 121.546   1
   7   4   9-79.7796 77.2408   1
  -7   5   6-11.3402 32.4651   1
  -7   5   5 2143.76 343.031   1
  -7   5   4 2205.06 352.184   1
  -7   5   3 2726.19 422.633   1
   8   0  -2 10.3814 49.7387   1
   8   0  -1 40.0694 22.9100   1
   8   0   0 1624.13 404.346   1
  -8   0  -1-2.65410 75.4451   1
   8   0   1-44.1617 128.663   1
  -8   0  -2 134.033 135.008   1
   8   0   2 117.938 148.127   1
  -8   0  -3 51.2023 133.535   1
   8   0   3 19.3136 43.6269   1
  -8   0  -4 19563.6 1559.30   1
   8   0   4 22756.9 1874.79   1
  -8   0  -5-19.4863 78.7287   1
   8   0   5 24.6206 79.7554   1
  -8   0  -6 16918.6 1508.86   1
   8   0   6 14676.5 1445.00   1
   8   0   7-46.3460 174.192   1
  -8   0  -7-33.5696 55.3767   1
   8  -1  -5 1.94219 20.3868   1
   8  -1  -4 14019.2 1125.36   1
   8  -1  -3 2200.58 428.475   1
   8  -1  -2 10657.8 1014.43   1
  -8   1   1 14129.8 1144.32   1
   8  -1  -1 12446.2 1124.59   1
  -8   1   0 1108.38 318.209   1
   8  -1   0 1375.29 393.417   1
  -8   1  -1 19888.1 1371.47   1
   8  -1   1 20076.1 1535.49   1
  -8   1  -2 16040.2 1366.97   1
   8   1   2 20604.0 1625.45   1
   8  -1   2 18575.9 1578.89   1
  -8  -1  -3 6325.18 862.746   1
   8   1   3 6581.81 882.328   1
   8  -1   3 5483.91 834.424   1
  -8   1  -3 6515.86 866.039   1
  -8  -1  -4 17302.1 1403.25   1
  -8   1  -4 15105.6 1384.38   1
   8   1   4 14992.3 1430.03   1
   8  -1   4 13464.8 1322.75   1
  -8  -1  -5 9369.07 1115.68   1
  -8   1  -5 9595.09 1132.65   1
   8   1   5 9562.66 1121.36   1
   8  -1   5 7925.95 1012.93   1
  -8  -1  -6 6316.92 927.777   1
  -8   1  -6 6519.21 975.264   1
   8  -1   6 5968.76 971.629   1
   8   1   6 6510.49 973.346   1
  -8  -1  -7 2227.25 520.187   1
   8   1   7 1980.91 506.913   1
  -8   1  -7 2299.73 610.039   1
   8  -1   7 2102.90 561.506   1
   8  -2  -6-21.4141 32.1145   1
   8  -2  -5 2744.14 432.556   1
   8  -2  -4 11127.2 927.210   1
   8  -2  -3 749.641 220.215   1
  -8   2   2 16578.2 1210.49   1
   8  -2  -2 16159.3 1267.55   1
  -8   2   1 50810.4 2327.67   1
   8  -2  -1 53007.0 2486.54   1
  -8   2   0 18272.7 1372.57   1
   8  -2   0 19488.2 1444.35   1
  -8   2  -1 37645.2 2077.64   1
   8  -2   1 35247.2 2055.78   1
  -8   2  -2 8757.29 968.906   1
   8  -2   2 7955.48 888.760   1
   8  -2   3 2357.20 516.306   1
  -8   2  -3 1753.15 413.770   1
  -8   2  -4 18129.7 1473.65   1
   8  -2   4 17255.5 1523.39   1
   8   2   5 956.993 336.332   1
   8  -2   5 325.663 203.077   1
  -8   2  -5 994.207 352.653   1
  -8  -2  -6 2450.40 528.080   1
   8   2   6 1340.17 408.380   1
  -8  -2  -7 24751.7 1949.09   1
   8   2   7 33147.5 2278.02   1
   8  -3  -6 35209.6 1493.38   1
   8  -3  -5 215.836 109.562   1
  -8   3   4 3298.06 475.648   1
   8  -3  -4 2225.00 368.813   1
  -8   3   3 1738.43 356.438   1
   8  -3  -3 1420.32 300.345   1
  -8   3   2 20859.0 1365.41   1
   8  -3  -2 16669.6 1185.57   1
  -8   3   1 6371.94 742.795   1
   8  -3  -1 5714.68 703.682   1
   8  -3   0 418.418 207.394   1
  -8   3   0 99.7534 83.3375   1
  -8   3  -1 4892.86 699.124   1
   8  -3   1 5110.09 752.706   1
  -8   3  -2 6277.50 794.014   1
   8  -3   2 7329.11 942.693   1
  -8   3  -3 296.549 197.910   1
   8  -3   3 266.781 223.325   1
   8   3   6-115.782 171.745   1
   8   3   7-74.0376 110.367   1
  -8   4   5 13014.1 939.442   1
  -8   4   4 5537.29 615.382   1
  -8   4   3 660.722 227.874   1
  -8   4   2 2580.49 466.128   1
  -8   4   1 22014.0 1409.71   1
  -8   4   0 7077.51 822.500   1
  -8   5   5 8849.29 756.866   1
  -8   5   4 419.394 145.195   1
  -8   5   3 10830.2 905.696   1
  -8   5   2-11.8499 16.9286   1
   9   0  -2-15.3643 32.2567   1
   9   0  -1-54.4795 135.319   1
   9   0   0-36.9326 70.4904   1
  -9   0  -1-81.5701 53.7779   1
   9   0   1 106.357 139.479   1
  -9   0  -2 5389.10 789.296   1
   9   0   2 5321.60 863.684   1
  -9   0  -3 123.753 165.358   1
   9   0   3-48.7942 120.369   1
  -9   0  -4 3850.97 706.337   1
   9   0   4 3500.12 767.574   1
   9   0   5-36.1019 128.636   1
  -9   0  -5 25.1458 53.3259   1
   9  -1  -4 27.4307 101.380   1
   9  -1  -3 6174.89 801.662   1
   9  -1  -2 2488.66 515.254   1
  -9   1   1 21387.8 1548.44   1
   9  -1  -1 18662.1 1531.83   1
  -9   1   0 6258.25 838.282   1
   9  -1   0 7490.06 956.894   1
  -9   1  -1 12599.7 1206.40   1
   9  -1   1 14181.0 1407.34   1
   9   1   2 44.9068 171.225   1
  -9   1  -2 29.7452 44.1606   1
   9  -1   2 18.4775 80.7523   1
   9  -1   3 7173.35 1014.93   1
   9   1   3 6334.45 984.836   1
  -9   1  -3 6514.18 896.754   1
  -9  -1  -4 9731.23 1198.59   1
  -9   1  -4 9949.61 1194.60   1
   9   1   4 10162.8 1219.37   1
   9  -1   4 10258.4 1239.77   1
  -9  -1  -5 18.4842 102.669   1
   9   1   5 4.01073 68.7490   1
   9  -2  -6 14.9933 50.7956   1
   9  -2  -5 12532.7 1029.30   1
   9  -2  -4 3200.10 544.351   1
   9  -2  -3 7294.36 888.610   1
  -9   2   2 5117.66 699.105   1
   9  -2  -2 5072.35 751.353   1
  -9   2   1 7422.69 903.968   1
   9  -2  -1 7528.44 931.124   1
   9  -2   0 127.195 172.881   1
  -9   2   0-10.4708 97.7980   1
  -9   2  -1 15061.7 1342.71   1
   9  -2   1 14809.0 1355.83   1
  -9   2  -2 6563.42 892.225   1
   9  -2   2 6881.44 920.167   1
   9  -2   3 5837.25 883.689   1
  -9   2  -3 6416.94 911.359   1
   9  -2   4 6008.84 951.462   1
  -9   2  -4 6228.10 968.414   1
   9  -3  -6-77.7762 96.8031   1
   9  -3  -5 865.877 218.326   1
   9  -3  -4 30396.0 1574.53   1
  -9   3   3 3550.30 536.782   1
   9  -3  -3 2093.22 386.754   1
  -9   3   2 285.344 172.022   1
   9  -3  -2 242.843 142.971   1
  -9   3   1 398.470 189.873   1
   9  -3  -1 384.526 203.185   1
  -9   3   0 13628.2 1200.99   1
   9  -3   0 12413.8 1198.08   1
  -9   3  -1 76.4801 87.5922   1
   9  -3   1 268.853 190.078   1
   9  -3   2 1225.73 420.623   1
  -9   3  -2 1776.00 418.867   1
   9  -3   3 3017.31 667.250   1
  -9   3  -3 3277.17 685.104   1
  -9   4   4 168.701 131.239   1
   9  -4  -4 236.870 150.370   1
  -9   4   3 651.178 233.874   1
   9  -4  -3 791.099 268.801   1
  -9   4   2 5228.01 684.470   1
   9  -4  -2 4874.56 707.427   1
  -9   4   1 8223.62 894.278   1
  -9   4   0 283.649 169.140   1
  -9   4  -1 9056.54 1001.41   1
  -9   5   5 3123.47 474.962   1
  -9   5   4 3911.64 546.743   1
  -9   5   3 1166.69 301.355   1
  -9   5   2 1224.86 313.765   1
  10   0  -1-84.2320 65.6527   1
  10   0   0 735.753 380.534   1
  10   0   1 118.303 126.086   1
 -10   0  -2 416.092 241.535   1
  10   0   2 186.305 168.443   1
  10  -1  -4-60.8144 111.005   1
  10  -1  -3 28.1090 26.7744   1
  10  -1  -2 4606.55 781.661   1
  10  -1  -1 10632.1 1185.36   1
 -10   1   0 1866.49 474.598   1
  10  -1   0 736.151 327.792   1
 -10   1  -1 5680.12 844.174   1
  10  -1   1 5720.87 996.155   1
  10   1   2-43.2611 117.253   1
 -10   1  -2 268.344 245.321   1
  10  -1   2-154.587 129.112   1
  10  -2  -5 1490.78 404.710   1
  10  -2  -4 1243.26 363.858   1
  10  -2  -3 12295.2 1201.55   1
  10  -2  -2 2577.29 569.994   1
  10  -2  -1 133.385 167.303   1
 -10   2   1 38.0652 83.2483   1
 -10   2   0 564.974 264.856   1
  10  -2   0 211.463 176.371   1
 -10   2  -1 223.243 166.136   1
  10  -2   1 545.330 265.545   1
 -10   2  -2 1250.34 398.739   1
  10  -2   2 1598.23 459.062   1
  10  -3  -5 287.381 153.940   1
  10  -3  -4 983.902 272.651   1
 -10   3   3 1876.63 423.149   1
  10  -3  -3 1468.53 337.019   1
 -10   3   2 14135.3 1249.69   1
  10  -3  -2 11241.9 1056.96   1
 -10   3   1 841.779 293.690   1
  10  -3  -1 1042.67 319.822   1
  10  -3   0 3.24140 55.5630   1
 -10   3   0-38.3805 130.258   1
 -10   3  -1 207.167 220.245   1
  10  -3   1 32.7414 110.267   1
  10  -4  -5 7548.57 818.392   1
 -10   4   4 5313.29 710.677   1
  10  -4  -4 4844.38 659.420   1
 -10   4   3 14259.2 1219.34   1
  10  -4  -3 12870.7 1180.30   1
 -10   4   2-146.503 162.633   1
  10  -4  -2 2.92976 39.7409   1
 -10   4   1 358.133 171.777   1
  10  -4  -1 437.690 232.562   1
 -10   4   0 8400.80 1015.49   1
 -10   4  -1 359.943 186.970   1
 -10   5   5 11133.8 980.437   1
 -10   5   4-56.1928 68.0604   1
 -10   5   3 4547.91 645.132   1
 -10   5   2 261.039 159.081   1
  11  -1  -3-39.5594 134.355   1
  11  -1  -2 64.7262 134.552   1
  11  -1  -1 28.4896 115.692   1
  11  -2  -4 56.9677 115.087   1
  11  -2  -3 123.906 123.476   1
  11  -2  -2 3.50142 94.8976   1
 -11   2   1 14885.5 1414.78   1
  11  -2  -1 15004.0 1505.10   1
  11  -3  -5 1248.59 316.623   1
  11  -3  -4 389.346 190.990   1
  11  -3  -3 170.494 146.577   1
 -11   3   2 144.590 126.376   1
  11  -3  -2 58.0977 39.4209   1
  11  -3  -1 362.689 239.514   1
 -11   3   1 690.630 278.423   1
  11  -4  -5 9396.10 988.786   1
  11  -4  -4 2.71951 54.6618   1
 -11   4   3 17688.3 1436.22   1
  11  -4  -3 16295.6 1443.25   1
 -11   4   2 4906.36 738.830   1
  11  -4  -2 4012.12 720.731   1
 -11   5   4 16.0315 39.6653   1
 -11   5   3 24971.9 1675.40   1
 -11   5   2 302.655 194.337   1
  12  -3  -4 2617.63 575.087   1
  12  -4  -4 2304.74 536.753   1
   0   0   0    0.00    0.00   0

TITL slav_p02_s1 in P2(1)/c
REM P2(1)/c (#14 in standard setting)
CELL 0.41106   8.282934   9.301097   8.747945  90.0000  90.3240  90.0000
ZERR    4.00   0.000540   0.005022   0.001021   0.0000   0.0080   0.0000
LATT  1
SYMM -x, y+1/2,-z+1/2
SFAC O Al Si Sr
UNIT 32.00 8.00 8.00 4.00
TREF
HKLF 4
END
;
_shelx_hkl_checksum              27422
loop_
_space_group_symop_operation_xyz
'x, y, z'
'-x, y+1/2, -z+1/2'
'-x, -y, -z'
'x, -y-1/2, z-1/2'
loop_
_atom_site_label
_atom_site_type_symbol
_atom_site_fract_x
_atom_site_fract_y
_atom_site_fract_z
_atom_site_U_iso_or_equiv
_atom_site_adp_type
_atom_site_occupancy
_atom_site_site_symmetry_order
_atom_site_calc_flag
_atom_site_refinement_flags_posn
_atom_site_refinement_flags_adp
_atom_site_refinement_flags_occupancy
_atom_site_disorder_assembly
_atom_site_disorder_group
Sr1 Sr 0.74957(10) 0.4107(2) 0.61336(12) 0.0167(9) Uani 1 1 d . . . . .
Si1 Si 0.5610(3) 0.4216(8) 0.2434(4) 0.013(3) Uani 1 1 d . . . . .
Si2 Si 1.0569(3) 0.2990(7) 0.9414(4) 0.015(3) Uani 1 1 d . . . . .
Al1 Al 1.0692(4) 0.5736(9) 0.7649(4) 0.018(3) Uani 1 1 d . . . . .
Al2 Al 0.4281(4) 0.1948(8) 0.4485(4) 0.013(3) Uani 1 1 d . . . . .
O1 O 0.7412(9) 0.4252(18) 0.3189(10) 0.0135(18) Uiso 1 1 d . . . . .
O2 O 0.9917(9) 0.404(2) 0.8057(10) 0.0161(19) Uiso 1 1 d . . . . .
O3 O 1.0552(8) 0.134(2) 0.8865(9) 0.0115(17) Uiso 1 1 d . . . . .
O4 O 0.4424(8) 0.370(2) 0.3774(9) 0.0114(18) Uiso 1 1 d . . . . .
O5 O 0.5608(8) 0.3100(18) 0.1037(9) 0.0093(16) Uiso 1 1 d . . . . .
O6 O 1.2336(9) 0.348(2) 0.9956(10) 0.0163(18) Uiso 1 1 d . . . . .
O7 O 0.9262(9) 0.308(2) 1.0807(10) 0.0159(19) Uiso 1 1 d . . . . .
O8 O 0.4952(9) 0.580(2) 0.1893(11) 0.019(2) Uiso 1 1 d . . . . .
loop_
_atom_site_aniso_label
_atom_site_aniso_U_11
_atom_site_aniso_U_22
_atom_site_aniso_U_33
_atom_site_aniso_U_23
_atom_site_aniso_U_13
_atom_site_aniso_U_12
Sr1 0.0102(5) 0.026(3) 0.0143(7) 0.0009(6) -0.0001(4) 0.0012(5)
Si1 0.0088(12) 0.022(10) 0.0083(19) -0.0047(17) -0.0005(12) -0.0019(16)
Si2 0.0068(12) 0.027(10) 0.010(2) -0.0068(18) 0.0004(11) -0.0014(17)
Al1 0.0094(15) 0.028(11) 0.016(2) -0.004(2) -0.0007(14) -0.0038(19)
Al2 0.0099(14) 0.017(12) 0.011(2) 0.002(2) -0.0018(14) 0.0039(19)
loop_
_atom_type_symbol
_atom_type_description
_atom_type_scat_dispersion_real
_atom_type_scat_dispersion_imag
_atom_type_scat_source
O O 0.0017 0.0018 'International Tables Vol C Tables 4.2.6.8 and 6.1.1.4'
Al Al 0.0192 0.0163 'International Tables Vol C Tables 4.2.6.8 and 6.1.1.4'
Si Si 0.0265 0.0226 'International Tables Vol C Tables 4.2.6.8 and 6.1.1.4'
Sr Sr 0.2429 1.2951 'International Tables Vol C Tables 4.2.6.8 and 6.1.1.4'
loop_
_geom_angle_atom_site_label_1
_geom_angle_atom_site_label_2
_geom_angle_atom_site_label_3
_geom_angle
_geom_angle_site_symmetry_1
_geom_angle_site_symmetry_3
_geom_angle_publ_flag
O7 Sr1 O1 86.6(4) 4_565 . ?
O7 Sr1 O5 73.0(4) 4_565 4_566 ?
O1 Sr1 O5 89.8(4) . 4_566 ?
O7 Sr1 O4 174.8(3) 4_565 3_666 ?
O1 Sr1 O4 88.7(4) . 3_666 ?
O5 Sr1 O4 104.8(4) 4_566 3_666 ?
O7 Sr1 O2 67.0(4) 4_565 . ?
O1 Sr1 O2 131.4(3) . . ?
O5 Sr1 O2 117.8(4) 4_566 . ?
O4 Sr1 O2 117.9(4) 3_666 . ?
O7 Sr1 O3 106.2(4) 4_565 2_756 ?
O1 Sr1 O3 88.4(4) . 2_756 ?
O5 Sr1 O3 178.1(3) 4_566 2_756 ?
O4 Sr1 O3 75.9(4) 3_666 2_756 ?
O2 Sr1 O3 63.2(4) . 2_756 ?
O7 Sr1 O8 122.8(5) 4_565 3_666 ?
O1 Sr1 O8 128.8(2) . 3_666 ?
O5 Sr1 O8 65.5(4) 4_566 3_666 ?
O4 Sr1 O8 59.0(4) 3_666 3_666 ?
O2 Sr1 O8 99.6(3) . 3_666 ?
O3 Sr1 O8 116.3(5) 2_756 3_666 ?
O7 Sr1 O3 51.2(4) 4_565 4_565 ?
O1 Sr1 O3 54.1(2) . 4_565 ?
O5 Sr1 O3 110.6(4) 4_566 4_565 ?
O4 Sr1 O3 126.9(4) 3_666 4_565 ?
O2 Sr1 O3 78.0(2) . 4_565 ?
O3 Sr1 O3 67.8(5) 2_756 4_565 ?
O8 Sr1 O3 174.0(5) 3_666 4_565 ?
O7 Sr1 Si1 152.6(3) 4_565 3_666 ?
O1 Sr1 Si1 110.0(3) . 3_666 ?
O5 Sr1 Si1 85.1(3) 4_566 3_666 ?
O4 Sr1 Si1 29.0(3) 3_666 3_666 ?
O2 Sr1 Si1 111.6(3) . 3_666 ?
O3 Sr1 Si1 96.2(3) 2_756 3_666 ?
O8 Sr1 Si1 30.0(4) 3_666 3_666 ?
O3 Sr1 Si1 156.0(3) 4_565 3_666 ?
O7 Sr1 O4 106.5(4) 4_565 . ?
O1 Sr1 O4 50.4(2) . . ?
O5 Sr1 O4 54.7(4) 4_566 . ?
O4 Sr1 O4 68.7(5) 3_666 . ?
O2 Sr1 O4 172.1(5) . . ?
O3 Sr1 O4 124.3(4) 2_756 . ?
O8 Sr1 O4 79.8(3) 3_666 . ?
O3 Sr1 O4 101.8(2) 4_565 . ?
Si1 Sr1 O4 71.8(2) 3_666 . ?
O7 Sr1 Al1 87.2(3) 4_565 . ?
O1 Sr1 Al1 113.1(3) . . ?
O5 Sr1 Al1 149.0(3) 4_566 . ?
O4 Sr1 Al1 96.7(3) 3_666 . ?
O2 Sr1 Al1 31.3(4) . . ?
O3 Sr1 Al1 31.9(2) 2_756 . ?
O8 Sr1 Al1 109.5(3) 3_666 . ?
O3 Sr1 Al1 71.4(2) 4_565 . ?
Si1 Sr1 Al1 104.88(14) 3_666 . ?
O4 Sr1 Al1 156.2(3) . . ?
O7 Sr1 Si2 24.6(3) 4_565 4_565 ?
O1 Sr1 Si2 67.7(3) . 4_565 ?
O5 Sr1 Si2 89.1(3) 4_566 4_565 ?
O4 Sr1 Si2 152.7(2) 3_666 4_565 ?
O2 Sr1 Si2 73.2(3) . 4_565 ?
O3 Sr1 Si2 89.6(3) 2_756 4_565 ?
O8 Sr1 Si2 147.2(4) 3_666 4_565 ?
O3 Sr1 Si2 26.9(3) 4_565 4_565 ?
Si1 Sr1 Si2 173.79(13) 3_666 4_565 ?
O4 Sr1 Si2 103.0(3) . 4_565 ?
Al1 Sr1 Si2 81.25(13) . 4_565 ?
O5 Si1 O4 111.4(7) . . ?
O5 Si1 O1 108.7(6) . . ?
O4 Si1 O1 105.8(5) . . ?
O5 Si1 O8 111.3(6) . . ?
O4 Si1 O8 105.9(7) . . ?
O1 Si1 O8 113.6(8) . . ?
O5 Si1 Sr1 127.2(3) . 3_666 ?
O4 Si1 Sr1 51.4(6) . 3_666 ?
O1 Si1 Sr1 123.8(5) . 3_666 ?
O8 Si1 Sr1 54.6(3) . 3_666 ?
O5 Si1 Sr1 131.9(5) . . ?
O4 Si1 Sr1 66.3(3) . . ?
O1 Si1 Sr1 40.7(3) . . ?
O8 Si1 Sr1 115.4(5) . . ?
Sr1 Si1 Sr1 90.41(9) 3_666 . ?
O5 Si1 Sr1 38.1(4) . 4_565 ?
O4 Si1 Sr1 103.9(7) . 4_565 ?
O1 Si1 Sr1 75.6(6) . 4_565 ?
O8 Si1 Sr1 144.4(4) . 4_565 ?
Sr1 Si1 Sr1 149.80(19) 3_666 4_565 ?
Sr1 Si1 Sr1 94.16(12) . 4_565 ?
O6 Si2 O3 111.6(7) . . ?
O6 Si2 O2 110.0(8) . . ?
O3 Si2 O2 110.7(7) . . ?
O6 Si2 O7 111.9(5) . . ?
O3 Si2 O7 105.3(8) . . ?
O2 Si2 O7 107.2(7) . . ?
O6 Si2 Sr1 133.5(5) . 4_566 ?
O3 Si2 Sr1 66.2(3) . 4_566 ?
O2 Si2 Sr1 113.8(4) . 4_566 ?
O7 Si2 Sr1 39.8(6) . 4_566 ?
O1 Al1 O2 115.3(8) 3_766 . ?
O1 Al1 O7 107.9(6) 3_766 3_767 ?
O2 Al1 O7 114.9(7) . 3_767 ?
O1 Al1 O3 101.9(5) 3_766 2_756 ?
O2 Al1 O3 103.2(6) . 2_756 ?
O7 Al1 O3 112.9(7) 3_767 2_756 ?
O1 Al1 Sr1 123.7(4) 3_766 . ?
O2 Al1 Sr1 51.2(3) . . ?
O7 Al1 Sr1 127.7(3) 3_767 . ?
O3 Al1 Sr1 52.1(5) 2_756 . ?
O1 Al1 Sr1 75.2(6) 3_766 2_756 ?
O2 Al1 Sr1 150.9(4) . 2_756 ?
O7 Al1 Sr1 38.7(5) 3_767 2_756 ?
O3 Al1 Sr1 100.5(6) 2_756 2_756 ?
Sr1 Al1 Sr1 147.0(2) . 2_756 ?
O1 Al1 Sr1 40.4(3) 3_766 3_766 ?
O2 Al1 Sr1 112.1(4) . 3_766 ?
O7 Al1 Sr1 132.1(5) 3_767 3_766 ?
O3 Al1 Sr1 63.1(3) 2_756 3_766 ?
Sr1 Al1 Sr1 89.28(10) . 3_766 ?
Sr1 Al1 Sr1 93.43(14) 2_756 3_766 ?
O6 Al2 O8 111.8(8) 4_465 2_645 ?
O6 Al2 O5 113.3(5) 4_465 4_566 ?
O8 Al2 O5 107.1(6) 2_645 4_566 ?
O6 Al2 O4 111.7(7) 4_465 . ?
O8 Al2 O4 107.5(6) 2_645 . ?
O5 Al2 O4 104.9(7) 4_566 . ?
O6 Al2 Sr1 136.4(5) 4_465 . ?
O8 Al2 Sr1 110.3(4) 2_645 . ?
O5 Al2 Sr1 41.1(5) 4_566 . ?
O4 Al2 Sr1 64.8(3) . . ?
Si1 O1 Al1 131.1(5) . 3_766 ?
Si1 O1 Sr1 115.0(4) . . ?
Al1 O1 Sr1 113.7(4) 3_766 . ?
Si2 O2 Al1 124.9(6) . . ?
Si2 O2 Sr1 137.2(8) . . ?
Al1 O2 Sr1 97.5(5) . . ?
Si2 O3 Al1 122.2(8) . 2_746 ?
Si2 O3 Sr1 138.5(4) . 2_746 ?
Al1 O3 Sr1 96.0(7) 2_746 2_746 ?
Si2 O3 Sr1 86.9(4) . 4_566 ?
Al1 O3 Sr1 87.9(3) 2_746 4_566 ?
Sr1 O3 Sr1 112.2(5) 2_746 4_566 ?
Si1 O4 Al2 125.4(10) . . ?
Si1 O4 Sr1 99.6(8) . 3_666 ?
Al2 O4 Sr1 132.9(4) . 3_666 ?
Si1 O4 Sr1 87.1(3) . . ?
Al2 O4 Sr1 86.4(3) . . ?
Sr1 O4 Sr1 111.3(5) 3_666 . ?
Si1 O5 Al2 127.5(8) . 4_565 ?
Si1 O5 Sr1 119.4(4) . 4_565 ?
Al2 O5 Sr1 112.6(7) 4_565 4_565 ?
Si2 O6 Al2 136.1(10) . 4_666 ?
Si2 O7 Al1 126.6(9) . 3_767 ?
Si2 O7 Sr1 115.6(9) . 4_566 ?
Al1 O7 Sr1 115.6(5) 3_767 4_566 ?
Si1 O8 Al2 129.1(7) . 2_655 ?
Si1 O8 Sr1 95.4(6) . 3_666 ?
Al2 O8 Sr1 135.4(9) 2_655 3_666 ?
loop_
_geom_bond_atom_site_label_1
_geom_bond_atom_site_label_2
_geom_bond_distance
_geom_bond_site_symmetry_2
_geom_bond_publ_flag
Sr1 O7 2.520(16) 4_565 ?
Sr1 O1 2.580(9) . ?
Sr1 O5 2.581(14) 4_566 ?
Sr1 O4 2.586(16) 3_666 ?
Sr1 O2 2.611(8) . ?
Sr1 O3 2.634(15) 2_756 ?
Sr1 O8 2.672(9) 3_666 ?
Sr1 O3 3.252(9) 4_565 ?
Sr1 Si1 3.265(4) 3_666 ?
Sr1 O4 3.289(7) . ?
Sr1 Al1 3.320(5) . ?
Sr1 Si2 3.548(5) 4_565 ?
Si1 O5 1.603(13) . ?
Si1 O4 1.607(10) . ?
Si1 O1 1.628(7) . ?
Si1 O8 1.64(2) . ?
Si2 O6 1.603(9) . ?
Si2 O3 1.606(18) . ?
Si2 O2 1.628(14) . ?
Si2 O7 1.636(9) . ?
Al1 O1 1.737(9) 3_766 ?
Al1 O2 1.739(18) . ?
Al1 O7 1.745(15) 3_767 ?
Al1 O3 1.766(10) 2_756 ?
Al2 O6 1.713(9) 4_465 ?
Al2 O8 1.733(16) 2_645 ?
Al2 O5 1.742(7) 4_566 ?
Al2 O4 1.751(19) . ?
