#------------------------------------------------------------------------------
#$Date: 2022-03-21 04:33:04 +0200 (Mon, 21 Mar 2022) $
#$Revision: 273854 $
#$URL: file:///home/coder/svn-repositories/cod/cif/1/56/66/1566658.cif $
#------------------------------------------------------------------------------
#
# This file is available in the Crystallography Open Database (COD),
# http://www.crystallography.net/
#
# All data on this site have been placed in the public domain by the
# contributors.
#
data_1566658
loop_
_publ_author_name
'Jorgensen, J. D.'
'Beyerlein, R. A.'
'Watanabe, N.'
'Worlton, T. G.'
_publ_section_title
;
 Structure of D2O ice VIII from in situ powder neutron diffraction
;
_journal_name_full               'The Journal of Chemical Physics'
_journal_page_first              3211
_journal_volume                  81
_journal_year                    1984
_chemical_formula_sum            'D2 O'
_chemical_name_systematic        'ice VIII'
_space_group_IT_number           141
_space_group_name_Hall           '-I 4bd 2'
_space_group_name_H-M_alt        'I 41/a m d :2'
_symmetry_cell_setting           tetragonal
_symmetry_Int_Tables_number      141
_symmetry_space_group_name_H-M   'I 41/a m d :2'
_cell_angle_alpha                90
_cell_angle_beta                 90
_cell_angle_gamma                90
_cell_formula_units_Z            8
_cell_length_a                   4.6779(5)
_cell_length_b                   4.6779
_cell_length_c                   6.8029(10)
_cell_volume                     148.87(3)
_cod_data_source_file            iceVIII_Jorgensen1984.cif
_cod_data_source_block           iceVIII_Jorgensen1984
_cod_original_sg_symbol_H-M      'I 41/a m d Z'
_cod_original_formula_sum        'D2 O1'
_cod_database_code               1566658
loop_
_symmetry_equiv_pos_site_id
_symmetry_equiv_pos_as_xyz
1 'y+1/4, x+3/4, -z+1/4'
2 'y+1/4, -x+3/4, -z+1/4'
3 'x, y+1/2, -z'
4 'x, -y, -z'
5 '-y+3/4, x+3/4, -z+1/4'
6 '-y+3/4, -x+3/4, -z+1/4'
7 '-x, y+1/2, -z'
8 '-x, -y, -z'
9 '-y+3/4, -x+1/4, z+3/4'
10 '-y+3/4, x+1/4, z+3/4'
11 '-x, -y+1/2, z'
12 '-x, y, z'
13 'y+1/4, -x+1/4, z+3/4'
14 'y+1/4, x+1/4, z+3/4'
15 'x, -y+1/2, z'
16 'x, y, z'
17 'y+3/4, x+1/4, -z+3/4'
18 'y+3/4, -x+1/4, -z+3/4'
19 'x+1/2, y, -z+1/2'
20 'x+1/2, -y+1/2, -z+1/2'
21 '-y+1/4, x+1/4, -z+3/4'
22 '-y+1/4, -x+1/4, -z+3/4'
23 '-x+1/2, y, -z+1/2'
24 '-x+1/2, -y+1/2, -z+1/2'
25 '-y+1/4, -x+3/4, z+1/4'
26 '-y+1/4, x+3/4, z+1/4'
27 '-x+1/2, -y, z+1/2'
28 '-x+1/2, y+1/2, z+1/2'
29 'y+3/4, -x+3/4, z+1/4'
30 'y+3/4, x+3/4, z+1/4'
31 'x+1/2, -y, z+1/2'
32 'x+1/2, y+1/2, z+1/2'
loop_
_atom_site_label
_atom_site_type_symbol
_atom_site_fract_x
_atom_site_fract_y
_atom_site_fract_z
_atom_site_B_iso_or_equiv
O1 O 0 0.25 0.1049(16) 1.57(17)
D1 D 0 0.4137(12) 0.1932(16) 2.31(9)
loop_
_citation_id
_citation_doi
_citation_year
1 10.1063/1.448027 1984
