#------------------------------------------------------------------------------
#$Date: 2015-01-27 21:58:39 +0200 (Tue, 27 Jan 2015) $
#$Revision: 130149 $
#$URL: svn://www.crystallography.net/cod/cif/2/00/24/2002405.cif $
#------------------------------------------------------------------------------
#
# This file is available in the Crystallography Open Database (COD),
# http://www.crystallography.net/
#
# All data on this site have been placed in the public domain by the
# contributors.
#
data_2002405
loop_
_publ_author_name
'Lalla, A'
'Mueller-Buschbaum, Hk'
_publ_section_title
;
Zwei neue Erdalkalimetall-Oxoindate: Ba Ca2 In6 O12 und Ba Sr2 In6 O12.
;
_journal_name_full
;
Zeitschrift fuer Anorganische und Allgemeine Chemie
;
_journal_page_first              11
_journal_page_last               15
_journal_paper_doi               10.1002/zaac.19885630103
_journal_volume                  563
_journal_year                    1988
_chemical_formula_structural     'Ba Sr2 (In6 O12)'
_chemical_formula_sum            'Ba In6 O12 Sr2'
_chemical_name_systematic        'Barium distrontium tecto-hexaindate'
_space_group_IT_number           176
_symmetry_cell_setting           hexagonal
_symmetry_Int_Tables_number      176
_symmetry_space_group_name_Hall  '-P 6c'
_symmetry_space_group_name_H-M   'P 63/m'
_cell_angle_alpha                90
_cell_angle_beta                 90
_cell_angle_gamma                120
_cell_formula_units_Z            1
_cell_length_a                   9.9443(2)
_cell_length_b                   9.9443(2)
_cell_length_c                   3.2671(2)
_cell_volume                     279.8
_refine_ls_R_factor_all          0.061
_cod_database_code               2002405
loop_
_symmetry_equiv_pos_as_xyz
x,y,z
-y,x-y,z
y-x,-x,z
-x,-y,1/2+z
y,y-x,1/2+z
x-y,x,1/2+z
-x,-y,-z
y,y-x,-z
x-y,x,-z
x,y,1/2-z
-y,x-y,1/2-z
y-x,-x,1/2-z
loop_
_atom_site_aniso_label
_atom_site_aniso_U_11
_atom_site_aniso_U_12
_atom_site_aniso_U_13
_atom_site_aniso_U_22
_atom_site_aniso_U_23
_atom_site_aniso_U_33
Ba1 0.028(2) 0.0138(8) 0. 0.028(2) 0. 0.081(9)
Sr1 0.0035(7) 0.0018(3) 0. 0.0035(7) 0. 0.0052(10)
In1 0.0050(5) 0.0020(4) 0. 0.0039(6) 0. 0.0107(7)
O1 0.004(4) 0.012(5) 0. 0.029(7) 0. 0.014(6)
O2 0.016(6) 0.009(5) 0. 0.018(6) 0. 0.033(8)
loop_
_atom_site_label
_atom_site_type_symbol
_atom_site_symmetry_multiplicity
_atom_site_Wyckoff_symbol
_atom_site_fract_x
_atom_site_fract_y
_atom_site_fract_z
_atom_site_occupancy
_atom_site_attached_hydrogens
_atom_site_calc_flag
Ba1 Ba2+ 4 e 0. 0. 0.148(3) 0.25 0 d
Sr1 Sr2+ 2 c 0.33333 0.66667 0.25 1. 0 d
In1 In3+ 6 h 0.3472(1) 0.9996(1) 0.25 1. 0 d
O1 O2- 6 h 0.194(2) 0.310(2) 0.25 1. 0 d
O2 O2- 6 h 0.529(2) 0.400(2) 0.25 1. 0 d
loop_
_atom_type_symbol
_atom_type_oxidation_number
Ba2+ 2.000
Sr2+ 2.000
In3+ 3.000
O2- -2.000
