#------------------------------------------------------------------------------
#$Date: 2016-02-14 16:26:36 +0200 (Sun, 14 Feb 2016) $
#$Revision: 176435 $
#$URL: svn://www.crystallography.net/cod/cif/2/00/28/2002832.cif $
#------------------------------------------------------------------------------
#
# This file is available in the Crystallography Open Database (COD),
# http://www.crystallography.net/
#
# All data on this site have been placed in the public domain by the
# contributors.
#
data_2002832
loop_
_publ_author_name
'Mueller-Buschbaum, Hk'
'Mertens, B'
_publ_section_title
;
Zu Ba Mg2 Cu8 V6 O26 isotype Alkalimetall-Cadmium-Kupferoxovanadate K
Cd0.67 Cu4.33 V3 O13, Rb Cd0.5 Cu4.5 V3 O13 sowie Tl Cd0.5 Cu4.5 V3
O13
;
_journal_name_full
;
Zeitschrift fuer Naturforschung, Teil B. Anorganische Chemie,
Organische Chemie (42,1987-)
;
_journal_page_first              639
_journal_page_last               642
_journal_volume                  52
_journal_year                    1997
_chemical_formula_structural     'Rb (Cd0.5 Cu0.5) (Cu4 V3 O13)'
_chemical_formula_sum            'Cd0.5 Cu4.5 O13 Rb V3'
_chemical_name_systematic
;
Rubidium cadmium copper tetracuprotrivanadate (1/0.5/0.5/1)
;
_space_group_IT_number           11
_symmetry_cell_setting           monoclinic
_symmetry_Int_Tables_number      11
_symmetry_space_group_name_Hall  '-P 2yb'
_symmetry_space_group_name_H-M   'P 1 21/m 1'
_cell_angle_alpha                90
_cell_angle_beta                 97.727(14)
_cell_angle_gamma                90
_cell_formula_units_Z            2
_cell_length_a                   10.746(3)
_cell_length_b                   6.1625(14)
_cell_length_c                   8.3497(13)
_cell_volume                     547.9
_refine_ls_R_factor_all          0.0656
_cod_original_formula_sum        'Cd.5 Cu4.5 O13 Rb V3'
_cod_database_code               2002832
loop_
_symmetry_equiv_pos_as_xyz
x,y,z
-x,1/2+y,-z
-x,-y,-z
x,1/2-y,z
loop_
_atom_site_aniso_label
_atom_site_aniso_U_11
_atom_site_aniso_U_12
_atom_site_aniso_U_13
_atom_site_aniso_U_22
_atom_site_aniso_U_23
_atom_site_aniso_U_33
Rb1 0.0169(3) 0. 0.0058(3) 0.0272(4) 0. 0.0301(3)
Cd1 0.0163(3) 0. 0.0013(2) 0.0155(3) 0. 0.0104(2)
Cu1 0.0163(3) 0. 0.0013(2) 0.0155(3) 0. 0.0104(2)
Cu2 0.0135(4) 0. 0.0012(3) 0.0270(4) 0. 0.0106(3)
Cu3 0.0074(4) 0. 0.0002(3) 0.0425(5) 0. 0.0101(3)
Cu4 0.0108(2) -0.0042(2) 0.0009(2) 0.0132(2) -0.0005(2) 0.0120(2)
V1 0.0084(5) 0. 0.0008(4) 0.0124(5) 0. 0.0086(4)
V2 0.0066(4) 0. 0.0034(4) 0.0143(5) 0. 0.0164(5)
V3 0.0083(4) 0. -0.0005(4) 0.0119(5) 0. 0.0101(4)
O1 0.007(2) 0. 0.0040(15) 0.010(2) 0. 0.011(2)
O2 0.009(2) 0. 0.001(2) 0.011(2) 0. 0.029(3)
O3 0.0109(14) 0.0031(12) 0.0008(12) 0.0122(15) 0.0012(11) 0.0154(13)
O4 0.017(2) -0.0030(14) 0.0003(13) 0.015(2) -0.0006(13) 0.0173(15)
O5 0.007(2) 0. -0.001(2) 0.028(3) 0. 0.013(2)
O6 0.016(2) 0. 0.001(2) 0.022(2) 0. 0.014(2)
O7 0.006(2) 0. -0.001(2) 0.030(3) 0. 0.016(2)
O8 0.016(2) 0. 0.009(2) 0.022(3) 0. 0.031(3)
O9 0.010(2) 0. .000(2) 0.026(3) 0. 0.022(2)
O10 0.018(2) -0.006(2) 0.0088(14) 0.022(2) -0.009(2) 0.031(2)
loop_
_atom_site_label
_atom_site_type_symbol
_atom_site_symmetry_multiplicity
_atom_site_Wyckoff_symbol
_atom_site_fract_x
_atom_site_fract_y
_atom_site_fract_z
_atom_site_occupancy
_atom_site_attached_hydrogens
_atom_site_calc_flag
Rb1 Rb1+ 2 e 0.60499(7) 0.25 0.98784(10) 1. 0 d
Cd1 Cd2+ 2 e 0.36053(6) 0.25 0.69384(7) 0.5 0 d
Cu1 Cu2+ 2 e 0.36053(6) 0.25 0.69384(7) 0.5 0 d
Cu2 Cu2+ 2 e -0.10499(9) 0.25 0.89049(10) 1. 0 d
Cu3 Cu2+ 2 e 0.05857(8) 0.25 0.64343(10) 1. 0 d
Cu4 Cu2+ 4 f 0.22626(5) -0.00171(10) 0.39377(6) 1. 0 d
V1 V5+ 2 e -0.11825(11) 0.25 0.31670(12) 1. 0 d
V2 V5+ 2 e 0.50038(11) 0.25 0.37196(14) 1. 0 d
V3 V5+ 2 e 0.20798(11) 0.25 1.03013(13) 1. 0 d
O1 O2- 2 e -0.1190(4) 0.25 0.6576(5) 1. 0 d
O2 O2- 2 e 0.3368(5) 0.25 0.4391(6) 1. 0 d
O3 O2- 4 f -0.1920(3) 0.0097(6) 0.3696(4) 1. 0 d
O4 O2- 4 f 0.2128(4) 0.0244(6) 1.1518(4) 1. 0 d
O5 O2- 2 e 0.0346(5) 0.25 0.4091(6) 1. 0 d
O6 O2- 2 e -0.1146(5) 0.25 0.1184(6) 1. 0 d
O7 O2- 2 e 0.0788(5) 0.25 0.8822(6) 1. 0 d
O8 O2- 2 e 0.3341(5) 0.25 0.9363(7) 1. 0 d
O9 O2- 2 e 0.6124(5) 0.25 0.5325(6) 1. 0 d
O10 O2- 4 f 0.5201(4) 0.0303(7) 0.2616(5) 1. 0 d
loop_
_atom_type_symbol
_atom_type_oxidation_number
Rb1+ 1.000
Cd2+ 2.000
Cu2+ 2.000
V5+ 5.000
O2- -2.000
