#------------------------------------------------------------------------------
#$Date: 2016-02-19 16:29:56 +0200 (Fri, 19 Feb 2016) $
#$Revision: 176759 $
#$URL: svn://www.crystallography.net/cod/cif/2/00/25/2002599.cif $
#------------------------------------------------------------------------------
#
# This file is available in the Crystallography Open Database (COD),
# http://www.crystallography.net/
#
# All data on this site have been placed in the public domain by the
# contributors.
#
data_2002599
loop_
_publ_author_name
'Mueller-Buschbaum, Hk'
'Schrandt, O'
_publ_section_title
;
Zur Kristallstruktur von Ba3 Ln4 O9 (Ln=Dy, Er, Y/Yb)
;
_journal_name_full               'Journal of Alloys Compd.'
_journal_page_first              151
_journal_page_last               154
_journal_paper_doi               10.1016/0925-8388(93)90288-X
_journal_volume                  191
_journal_year                    1993
_chemical_formula_structural     'Ba3 Dy4 O9'
_chemical_formula_sum            'Ba3 Dy4 O9'
_chemical_name_systematic        'Tribarium tetradysprosium oxide'
_space_group_IT_number           146
_symmetry_cell_setting           trigonal
_symmetry_space_group_name_Hall  'R 3'
_symmetry_space_group_name_H-M   'R 3 :H'
_cell_angle_alpha                90
_cell_angle_beta                 90
_cell_angle_gamma                120
_cell_formula_units_Z            3
_cell_length_a                   6.129(1)
_cell_length_b                   6.129(1)
_cell_length_c                   25.282(6)
_cell_volume                     822.5
_refine_ls_R_factor_all          0.029
_cod_original_sg_symbol_H-M      'R 3 H'
_cod_database_code               2002599
loop_
_symmetry_equiv_pos_as_xyz
x,y,z
-y,x-y,z
y-x,-x,z
1/3+x,2/3+y,2/3+z
2/3+x,1/3+y,1/3+z
1/3-y,2/3+x-y,2/3+z
2/3-y,1/3+x-y,1/3+z
1/3-x+y,2/3-x,2/3+z
2/3-x+y,1/3-x,1/3+z
loop_
_atom_site_label
_atom_site_type_symbol
_atom_site_symmetry_multiplicity
_atom_site_Wyckoff_symbol
_atom_site_fract_x
_atom_site_fract_y
_atom_site_fract_z
_atom_site_occupancy
_atom_site_attached_hydrogens
_atom_site_calc_flag
Ba1 Ba2+ 3 a 0. 0. 0. 1. 0 d
Ba2 Ba2+ 3 a 0. 0. 0.1626(3) 1. 0 d
Ba3 Ba2+ 3 a 0. 0. 0.5725(5) 1. 0 d
Dy1 Dy3+ 3 a 0. 0. 0.4244(5) 1. 0 d
Dy2 Dy3+ 3 a 0. 0. 0.8622(5) 1. 0 d
Dy3 Dy3+ 3 a 0. 0. 0.7370(5) 1. 0 d
Dy4 Dy3+ 3 a 0. 0. 0.2974(5) 1. 0 d
O1 O2- 9 b 0.910(2) 0.665(2) 0.246(1) 1. 0 d
O2 O2- 9 b 0.979(2) 0.407(2) 0.136(1) 1. 0 d
O3 O2- 9 b 0.022(2) 0.441(2) 0.030(1) 1. 0 d
loop_
_atom_type_symbol
_atom_type_oxidation_number
Ba2+ 2.000
Dy3+ 3.000
O2- -2.000
