#------------------------------------------------------------------------------
#$Date: 2016-02-14 16:26:36 +0200 (Sun, 14 Feb 2016) $
#$Revision: 176435 $
#$URL: svn://www.crystallography.net/cod/cif/2/00/24/2002432.cif $
#------------------------------------------------------------------------------
#
# This file is available in the Crystallography Open Database (COD),
# http://www.crystallography.net/
#
# All data on this site have been placed in the public domain by the
# contributors.
#
data_2002432
loop_
_publ_author_name
'Halle, G'
'Mueller-Buschbaum, Hk'
_publ_section_title
;
Untersuchungen an Zn(1-x) M(x) Ta2 O6 (M = Mg und Ni) mit einer
Verfeinerung der Kristallstruktur von Mg Ta2 O6
;
_journal_name_full               'Journal of the Less-Common Metals'
_journal_page_first              263
_journal_page_last               268
_journal_paper_doi               10.1016/0022-5088(88)90184-1
_journal_volume                  142
_journal_year                    1988
_chemical_formula_structural     'Zn0.85 Ni0.15 Ta2 O6'
_chemical_formula_sum            'Ni0.15 O6 Ta2 Zn0.85'
_chemical_name_systematic        'Zinc nickel tantalum oxide (0.85/0.15/2/6)'
_space_group_IT_number           136
_symmetry_cell_setting           tetragonal
_symmetry_Int_Tables_number      136
_symmetry_space_group_name_Hall  '-P 4n 2n'
_symmetry_space_group_name_H-M   'P 42/m n m'
_cell_angle_alpha                90
_cell_angle_beta                 90
_cell_angle_gamma                90
_cell_formula_units_Z            2
_cell_length_a                   4.7316(10)
_cell_length_b                   4.7316(10)
_cell_length_c                   9.1909(26)
_cell_volume                     205.8
_refine_ls_R_factor_all          0.067
_cod_original_formula_sum        'Ni.15 O6 Ta2 Zn.85'
_cod_database_code               2002432
loop_
_symmetry_equiv_pos_as_xyz
x,y,z
-x,-y,z
1/2+x,1/2-y,1/2+z
1/2-x,1/2+y,1/2+z
-x,-y,-z
x,y,-z
1/2-x,1/2+y,1/2-z
1/2+x,1/2-y,1/2-z
y,x,z
-y,-x,z
1/2-y,1/2+x,1/2+z
1/2+y,1/2-x,1/2+z
-y,-x,-z
y,x,-z
1/2+y,1/2-x,1/2-z
1/2-y,1/2+x,1/2-z
loop_
_atom_site_label
_atom_site_type_symbol
_atom_site_symmetry_multiplicity
_atom_site_Wyckoff_symbol
_atom_site_fract_x
_atom_site_fract_y
_atom_site_fract_z
_atom_site_occupancy
_atom_site_attached_hydrogens
_atom_site_calc_flag
Zn1 Zn2+ 2 a 0. 0. 0. 0.85 0 d
Ni1 Ni2+ 2 a 0. 0. 0. 0.15 0 d
Ta1 Ta5+ 4 e 0. 0. 0.3318(2) 1. 0 d
O1 O2- 4 f 0.307(8) 0.307(8) 0. 1. 0 d
O2 O2- 8 j 0.292(5) 0.292(5) 0.324(3) 1. 0 d
loop_
_atom_type_symbol
_atom_type_oxidation_number
Zn2+ 2.000
Ni2+ 2.000
Ta5+ 5.000
O2- -2.000
