#------------------------------------------------------------------------------
#$Date: 2015-01-27 21:58:39 +0200 (Tue, 27 Jan 2015) $
#$Revision: 130149 $
#$URL: svn://www.crystallography.net/cod/cif/2/00/23/2002351.cif $
#------------------------------------------------------------------------------
#
# This file is available in the Crystallography Open Database (COD),
# http://www.crystallography.net/
#
# All data on this site have been placed in the public domain by the
# contributors.
#
data_2002351
loop_
_publ_author_name
'Mader, K'
'Mueller-Buschbaum, Hk'
_publ_section_title
;
Notiz ueber einen Perowskit der Zusammensetzung Ba In O2.5
;
_journal_name_full
;
Zeitschrift fuer Anorganische und Allgemeine Chemie
;
_journal_page_first              125
_journal_page_last               128
_journal_paper_doi               10.1002/zaac.19855280913
_journal_volume                  528
_journal_year                    1985
_chemical_formula_structural     'Ba In O2.5'
_chemical_formula_sum            'Ba In O2.5'
_chemical_name_systematic        'Barium indium oxide (1/1/2.5)'
_space_group_IT_number           221
_symmetry_cell_setting           cubic
_symmetry_Int_Tables_number      221
_symmetry_space_group_name_Hall  '-P 4 2 3'
_symmetry_space_group_name_H-M   'P m -3 m'
_cell_angle_alpha                90
_cell_angle_beta                 90
_cell_angle_gamma                90
_cell_formula_units_Z            1
_cell_length_a                   4.219(2)
_cell_length_b                   4.219(2)
_cell_length_c                   4.219(2)
_cell_volume                     75.1
_refine_ls_R_factor_all          0.059
_cod_database_code               2002351
loop_
_symmetry_equiv_pos_as_xyz
x,y,z
y,z,x
z,x,y
x,z,y
y,x,z
z,y,x
x,-y,-z
y,-z,-x
z,-x,-y
x,-z,-y
y,-x,-z
z,-y,-x
-x,y,-z
-y,z,-x
-z,x,-y
-x,z,-y
-y,x,-z
-z,y,-x
-x,-y,z
-y,-z,x
-z,-x,y
-x,-z,y
-y,-x,z
-z,-y,x
-x,-y,-z
-y,-z,-x
-z,-x,-y
-x,-z,-y
-y,-x,-z
-z,-y,-x
-x,y,z
-y,z,x
-z,x,y
-x,z,y
-y,x,z
-z,y,x
x,-y,z
y,-z,x
z,-x,y
x,-z,y
y,-x,z
z,-y,x
x,y,-z
y,z,-x
z,x,-y
x,z,-y
y,x,-z
z,y,-x
loop_
_atom_site_label
_atom_site_type_symbol
_atom_site_symmetry_multiplicity
_atom_site_Wyckoff_symbol
_atom_site_fract_x
_atom_site_fract_y
_atom_site_fract_z
_atom_site_occupancy
_atom_site_attached_hydrogens
_atom_site_calc_flag
Ba1 Ba2+ 1 b 0.5 0.5 0.5 1. 0 d
In1 In3+ 1 a 0. 0. 0. 1. 0 d
O1 O2- 3 d 0.5 0. 0. 0.833 0 d
loop_
_atom_type_symbol
_atom_type_oxidation_number
Ba2+ 2.000
In3+ 3.000
O2- -2.000
