#------------------------------------------------------------------------------
#$Date: 2016-02-14 16:26:36 +0200 (Sun, 14 Feb 2016) $
#$Revision: 176435 $
#$URL: svn://www.crystallography.net/cod/cif/2/00/27/2002767.cif $
#------------------------------------------------------------------------------
#
# This file is available in the Crystallography Open Database (COD),
# http://www.crystallography.net/
#
# All data on this site have been placed in the public domain by the
# contributors.
#
data_2002767
loop_
_publ_author_name
'Sedello, O'
'Mueller-Buschbaum, Hk'
_publ_section_title              'Zur Kristallstruktur von (Cu, Mn) U Mo3 O12'
_journal_name_full
;
Zeitschrift fuer Naturforschung, Teil B. Anorganische Chemie,
Organische Chemie (42,1987-)
;
_journal_page_first              450
_journal_page_last               452
_journal_volume                  51
_journal_year                    1996
_chemical_formula_structural     '(Cu.5 Mn.5) U Mo3 O12'
_chemical_formula_sum            'Cu0.5 Mn0.5 Mo3 O12 U'
_chemical_name_systematic
;
Copper manganese uranium molybdenum oxide (0.5/0.5/1/3/12)
;
_space_group_IT_number           176
_symmetry_cell_setting           hexagonal
_symmetry_Int_Tables_number      176
_symmetry_space_group_name_Hall  '-P 6c'
_symmetry_space_group_name_H-M   'P 63/m'
_cell_angle_alpha                90
_cell_angle_beta                 90
_cell_angle_gamma                120
_cell_formula_units_Z            2
_cell_length_a                   9.7895(13)
_cell_length_b                   9.7895(13)
_cell_length_c                   6.2021(10)
_cell_volume                     514.7
_refine_ls_R_factor_all          0.0666
_cod_original_formula_sum        'Cu.5 Mn.5 Mo3 O12 U'
_cod_database_code               2002767
loop_
_symmetry_equiv_pos_as_xyz
x,y,z
-y,x-y,z
y-x,-x,z
-x,-y,1/2+z
y,y-x,1/2+z
x-y,x,1/2+z
-x,-y,-z
y,y-x,-z
x-y,x,-z
x,y,1/2-z
-y,x-y,1/2-z
y-x,-x,1/2-z
loop_
_atom_site_aniso_label
_atom_site_aniso_U_11
_atom_site_aniso_U_12
_atom_site_aniso_U_13
_atom_site_aniso_U_22
_atom_site_aniso_U_23
_atom_site_aniso_U_33
Cu1 0.0167(8) 0.0084(4) 0. 0.0167(8) 0. 0.0098(11)
Mn1 0.0167(8) 0.0084(4) 0. 0.0167(8) 0. 0.0098(11)
Mo1 0.0108(2) 0.0052(2) 0. 0.0104(2) 0. 0.0074(2)
U1 0.01118(12) 0.00559(6) 0. 0.01118(12) 0. 0.0066(2)
O1 0.009(2) 0.003(2) 0. 0.009(2) 0. 0.022(3)
O2 0.013(2) 0.004(2) 0. 0.017(3) 0. 0.046(5)
O3 0.029(2) 0.026(2) 0.020(2) 0.039(2) 0.029(2) 0.036(3)
loop_
_atom_site_label
_atom_site_type_symbol
_atom_site_symmetry_multiplicity
_atom_site_Wyckoff_symbol
_atom_site_fract_x
_atom_site_fract_y
_atom_site_fract_z
_atom_site_occupancy
_atom_site_attached_hydrogens
_atom_site_calc_flag
Cu1 Cu2+ 2 b 0. 0. 0. 0.5 0 d
Mn1 Mn2+ 2 b 0. 0. 0. 0.5 0 d
Mo1 Mo6+ 6 h 0.09789(7) 0.38847(7) 0.25 1. 0 d
U1 U4+ 2 d 0.6667 0.3333 0.25 1. 0 d
O1 O2- 6 h 0.9459(7) 0.4330(7) 0.25 1. 0 d
O2 O2- 6 h 0.0261(9) 0.1795(9) 0.25 1. 0 d
O3 O2- 12 i 0.2118(7) 0.4688(7) 0.0197(11) 1. 0 d
loop_
_atom_type_symbol
_atom_type_oxidation_number
Cu2+ 2.000
Mn2+ 2.000
Mo6+ 6.000
U4+ 4.000
O2- -2.000
