#------------------------------------------------------------------------------
#$Date: 2015-01-27 21:58:39 +0200 (Tue, 27 Jan 2015) $
#$Revision: 130149 $
#$URL: svn://www.crystallography.net/cod/cif/2/00/23/2002383.cif $
#------------------------------------------------------------------------------
#
# This file is available in the Crystallography Open Database (COD),
# http://www.crystallography.net/
#
# All data on this site have been placed in the public domain by the
# contributors.
#
data_2002383
loop_
_publ_author_name
'Schiffler, S'
'Mueller-Buschbaum, Hk'
_publ_section_title
;
Neue Verbindungen zum Ba Ni Nd2 O5-Typ: Ba Ni Ln2 O5 (Ln = Sm, Gd, Ho,
Er, Tm)
;
_journal_name_full
;
Monatshefte fuer Chemie und verwandte Teile anderer Wissenschaften
(109,1978-)
;
_journal_page_first              741
_journal_page_last               747
_journal_volume                  118
_journal_year                    1987
_chemical_formula_structural     'Ba Ni Gd2 O5'
_chemical_formula_sum            'Ba Gd2 Ni O5'
_chemical_name_systematic        'Barium nickel digadolinium pentaoxide'
_space_group_IT_number           71
_symmetry_cell_setting           orthorhombic
_symmetry_Int_Tables_number      71
_symmetry_space_group_name_Hall  '-I 2 2'
_symmetry_space_group_name_H-M   'I m m m'
_cell_angle_alpha                90
_cell_angle_beta                 90
_cell_angle_gamma                90
_cell_formula_units_Z            2
_cell_length_a                   3.786(1)
_cell_length_b                   5.828(2)
_cell_length_c                   11.480(4)
_cell_volume                     253.3
_refine_ls_R_factor_all          0.082
_cod_database_code               2002383
loop_
_symmetry_equiv_pos_as_xyz
x,y,z
x,-y,-z
-x,y,-z
-x,-y,z
-x,-y,-z
-x,y,z
x,-y,z
x,y,-z
1/2+x,1/2+y,1/2+z
1/2+x,1/2-y,1/2-z
1/2-x,1/2+y,1/2-z
1/2-x,1/2-y,1/2+z
1/2-x,1/2-y,1/2-z
1/2-x,1/2+y,1/2+z
1/2+x,1/2-y,1/2+z
1/2+x,1/2+y,1/2-z
loop_
_atom_site_label
_atom_site_type_symbol
_atom_site_symmetry_multiplicity
_atom_site_Wyckoff_symbol
_atom_site_fract_x
_atom_site_fract_y
_atom_site_fract_z
_atom_site_occupancy
_atom_site_attached_hydrogens
_atom_site_calc_flag
Ba1 Ba2+ 2 a 0. 0. 0. 1. 0 d
Gd1 Gd3+ 4 j 0.5 0. 0.7027(2) 1. 0 d
Ni1 Ni2+ 2 c 0.5 0.5 0. 1. 0 d
O1 O2- 8 l 0. 0.755(6) 0.351(3) 1. 0 d
O2 O2- 2 d 0.5 0. 0.5 1. 0 d
loop_
_atom_type_symbol
_atom_type_oxidation_number
Ba2+ 2.000
Gd3+ 3.000
Ni2+ 2.000
O2- -2.000
