#------------------------------------------------------------------------------
#$Date: 2015-01-27 21:58:39 +0200 (Tue, 27 Jan 2015) $
#$Revision: 130149 $
#$URL: svn://www.crystallography.net/cod/cif/2/00/24/2002433.cif $
#------------------------------------------------------------------------------
#
# This file is available in the Crystallography Open Database (COD),
# http://www.crystallography.net/
#
# All data on this site have been placed in the public domain by the
# contributors.
#
data_2002433
loop_
_publ_author_name
'Halle, G'
'Mueller-Buschbaum, Hk'
_publ_section_title
;
Untersuchungen an Zn(1-x) M(x) Ta2 O6 (M = Mg und Ni) mit einer
Verfeinerung der Kristallstruktur von Mg Ta2 O6
;
_journal_name_full               'Journal of Solid State Chemistry'
_journal_page_first              263
_journal_page_last               268
_journal_volume                  142
_journal_year                    1988
_chemical_formula_structural     'Mg Ta2 O6'
_chemical_formula_sum            'Mg O6 Ta2'
_chemical_name_systematic        'Magnesium ditantalum oxide'
_space_group_IT_number           136
_symmetry_cell_setting           tetragonal
_symmetry_Int_Tables_number      136
_symmetry_space_group_name_Hall  '-P 4n 2n'
_symmetry_space_group_name_H-M   'P 42/m n m'
_cell_angle_alpha                90
_cell_angle_beta                 90
_cell_angle_gamma                90
_cell_formula_units_Z            2
_cell_length_a                   4.7189(7)
_cell_length_b                   4.7189(7)
_cell_length_c                   9.2003(22)
_cell_volume                     204.9
_refine_ls_R_factor_all          0.079
_cod_database_code               2002433
loop_
_symmetry_equiv_pos_as_xyz
x,y,z
-x,-y,z
1/2+x,1/2-y,1/2+z
1/2-x,1/2+y,1/2+z
-x,-y,-z
x,y,-z
1/2-x,1/2+y,1/2-z
1/2+x,1/2-y,1/2-z
y,x,z
-y,-x,z
1/2-y,1/2+x,1/2+z
1/2+y,1/2-x,1/2+z
-y,-x,-z
y,x,-z
1/2+y,1/2-x,1/2-z
1/2-y,1/2+x,1/2-z
loop_
_atom_site_label
_atom_site_type_symbol
_atom_site_symmetry_multiplicity
_atom_site_Wyckoff_symbol
_atom_site_fract_x
_atom_site_fract_y
_atom_site_fract_z
_atom_site_occupancy
_atom_site_attached_hydrogens
_atom_site_calc_flag
Mg1 Mg2+ 2 a 0. 0. 0. 1. 0 d
Ta1 Ta5+ 4 e 0. 0. 0.3319(3) 1. 0 d
O1 O2- 4 f 0.308(9) 0.308(9) 0. 1. 0 d
O2 O2- 8 j 0.297(6) 0.297(6) 0.323(5) 1. 0 d
loop_
_atom_type_symbol
_atom_type_oxidation_number
Mg2+ 2.000
Ta5+ 5.000
O2- -2.000
