#------------------------------------------------------------------------------
#$Date: 2015-01-27 21:58:39 +0200 (Tue, 27 Jan 2015) $
#$Revision: 130149 $
#$URL: svn://www.crystallography.net/cod/cif/2/00/25/2002508.cif $
#------------------------------------------------------------------------------
#
# This file is available in the Crystallography Open Database (COD),
# http://www.crystallography.net/
#
# All data on this site have been placed in the public domain by the
# contributors.
#
data_2002508
loop_
_publ_author_name
'Mueller-Buschbaum, Hk'
'Sonne, P'
_publ_section_title
;
Zur Kenntnis von Ba Ni Tb2 O5 und Ba Cu La Sm O5
;
_journal_name_full               'Journal of the Less-Common Metals'
_journal_page_first              185
_journal_page_last               192
_journal_paper_doi               10.1016/0022-5088(90)90304-3
_journal_volume                  167
_journal_year                    1990
_chemical_formula_structural     'Ba Cu La Sm O5'
_chemical_formula_sum            'Ba Cu La O5 Sm'
_chemical_name_systematic        'Barium copper lanthanum samarium oxide'
_space_group_IT_number           127
_symmetry_cell_setting           tetragonal
_symmetry_Int_Tables_number      127
_symmetry_space_group_name_Hall  '-P 4 2ab'
_symmetry_space_group_name_H-M   'P 4/m b m'
_cell_angle_alpha                90
_cell_angle_beta                 90
_cell_angle_gamma                90
_cell_formula_units_Z            2
_cell_length_a                   6.743(1)
_cell_length_b                   6.743(1)
_cell_length_c                   5.836(1)
_cell_volume                     265.4
_refine_ls_R_factor_all          0.039
_cod_database_code               2002508
loop_
_symmetry_equiv_pos_as_xyz
x,y,z
-x,-y,z
1/2+x,1/2-y,z
1/2-x,1/2+y,z
-y,x,z
y,-x,z
1/2+y,1/2+x,z
1/2-y,1/2-x,z
-x,-y,-z
x,y,-z
1/2-x,1/2+y,-z
1/2+x,1/2-y,-z
y,-x,-z
-y,x,-z
1/2-y,1/2-x,-z
1/2+y,1/2+x,-z
loop_
_atom_site_label
_atom_site_type_symbol
_atom_site_symmetry_multiplicity
_atom_site_Wyckoff_symbol
_atom_site_fract_x
_atom_site_fract_y
_atom_site_fract_z
_atom_site_occupancy
_atom_site_attached_hydrogens
_atom_site_calc_flag
Cu1 Cu2+ 2 d 0. 0.5 0. 1. 0 d
Ba1 Ba2+ 2 a 0. 0. 0. 1. 0 d
La1 La3+ 4 h 0.1741(1) 0.6741(1) 0.5 0.5 0 d
Sm1 Sm3+ 4 h 0.1741(1) 0.6741(1) 0.5 0.5 0 d
O1 O2- 8 k 0.359(1) 0.859(1) 0.761(2) 1. 0 d
O2 O2- 2 b 0. 0. 0.5 1. 0 d
loop_
_atom_type_symbol
_atom_type_oxidation_number
Cu2+ 2.000
Ba2+ 2.000
La3+ 3.000
Sm3+ 3.000
O2- -2.000
