#------------------------------------------------------------------------------
#$Date: 2015-01-27 21:58:39 +0200 (Tue, 27 Jan 2015) $
#$Revision: 130149 $
#$URL: svn://www.crystallography.net/cod/cif/2/00/28/2002876.cif $
#------------------------------------------------------------------------------
#
# This file is available in the Crystallography Open Database (COD),
# http://www.crystallography.net/
#
# All data on this site have been placed in the public domain by the
# contributors.
#
data_2002876
loop_
_publ_author_name
'Mueller-Buschbaum, Hk'
'Wolters, M'
_publ_section_title
;
Synthese und Kristallstrukturuntersuchung von Ca Be Eu2 O5, Sr Be Gd2
O5 und Eu Be Sm2 O5
;
_journal_name_full               'Journal of Alloys Compd.'
_journal_page_first              L1
_journal_page_last               L3
_journal_paper_doi               10.1016/0925-8388(94)90104-X
_journal_volume                  210
_journal_year                    1994
_chemical_formula_structural     'Sr Be Gd2 O5'
_chemical_formula_sum            'Be Gd2 O5 Sr'
_chemical_name_systematic        'Strontium beryllium digadolinium oxide'
_space_group_IT_number           62
_symmetry_cell_setting           orthorhombic
_symmetry_Int_Tables_number      62
_symmetry_space_group_name_Hall  '-P 2ac 2n'
_symmetry_space_group_name_H-M   'P n m a'
_cell_angle_alpha                90
_cell_angle_beta                 90
_cell_angle_gamma                90
_cell_formula_units_Z            4
_cell_length_a                   9.4342(66)
_cell_length_b                   7.1255(9)
_cell_length_c                   6.4797(14)
_cell_volume                     435.6
_refine_ls_R_factor_all          0.048
_cod_database_code               2002876
loop_
_symmetry_equiv_pos_as_xyz
x,y,z
1/2+x,1/2-y,1/2-z
-x,1/2+y,-z
1/2-x,-y,1/2+z
-x,-y,-z
1/2-x,1/2+y,1/2+z
x,1/2-y,z
1/2+x,y,1/2-z
loop_
_atom_site_label
_atom_site_type_symbol
_atom_site_symmetry_multiplicity
_atom_site_Wyckoff_symbol
_atom_site_fract_x
_atom_site_fract_y
_atom_site_fract_z
_atom_site_occupancy
_atom_site_attached_hydrogens
_atom_site_calc_flag
Gd1 Gd3+ 4 c 0.9773(2) 0.25 0.5958(3) 1. 0 d
Sr1 Sr2+ 8 d 0.8255(2) 0.0211(2) 0.0816(2) 0.5 0 d
Gd2 Gd3+ 8 d 0.8255(2) 0.0211(2) 0.0816(2) 0.5 0 d
Be1 Be2+ 4 c 0.0930(15) 0.25 0.2144(16) 1. 0 d
O1 O2- 8 d 0.431(1) 0.940(1) 0.810(1) 1. 0 d
O2 O2- 4 c 0.215(1) 0.25 0.667(2) 1. 0 d
O3 O2- 4 c 0.275(1) 0.25 0.136(2) 1. 0 d
O4 O2- 4 c 0.508(1) 0.25 0.525(1) 1. 0 d
loop_
_atom_type_symbol
_atom_type_oxidation_number
Gd3+ 3.000
Sr2+ 2.000
Be2+ 2.000
O2- -2.000
