#------------------------------------------------------------------------------
#$Date: 2016-02-14 16:26:36 +0200 (Sun, 14 Feb 2016) $
#$Revision: 176435 $
#$URL: svn://www.crystallography.net/cod/cif/2/00/31/2003144.cif $
#------------------------------------------------------------------------------
#
# This file is available in the Crystallography Open Database (COD),
# http://www.crystallography.net/
#
# All data on this site have been placed in the public domain by the
# contributors.
#
data_2003144
_journal_name_full               'Acta Crystallographica, Section B'
_journal_page_first              750
_journal_page_last               765
_journal_volume                  54
_journal_year                    1998
_chemical_formula_sum            'O3 Pb Zr'
_chemical_formula_weight         346.41
_symmetry_cell_setting           orthorhombic
_symmetry_space_group_name_Hall  '-P 2 2ab'
_symmetry_space_group_name_H-M   'P b a m'
_cell_angle_alpha                90.00
_cell_angle_beta                 90.00
_cell_angle_gamma                90.00
_cell_formula_units_Z            4
_cell_length_a                   5.8808(5)
_cell_length_b                   11.7703(6)
_cell_length_c                   8.2539(5)
_cell_volume                     571.31
_diffrn_radiation_probe          neutron
_diffrn_radiation_type           neutron
_diffrn_radiation_wavelength     0.71073
_cod_original_formula_sum        'Pb Zr O3'
_cod_database_code               2003144
loop_
_symmetry_equiv_pos_as_xyz
x,y,z
-x,-y,-z
x,y,-z
-x,-y,+z
1/2+x,1/2-y,z
-1/2-x,-1/2+y,-z
1/2-x,1/2+y,z
-1/2+x,-1/2-y,-z
loop_
_atom_site_label
_atom_site_fract_x
_atom_site_fract_y
_atom_site_fract_z
_atom_site_U_iso_or_equiv
_atom_site_adp_type
_atom_site_type_symbol
Pb 0.716(3) 0.125(2) 0 2.27(3) Biso Pb
Pb' 0.716(3) 0.126 0.5 2.27(3) Biso Pb
Zr 0.242(2) 0.127(2) 0.25 0.22(2) Biso Zr
Zr' 0.240 0.127 0.75 0.22(2) Biso Zr
O1 0.270(2) 0.142(2) 0 0.72(3) Biso O
O1' 0.288(2) 0.087(2) 0.5 0.72(3) Biso O
O2 0.028 0.261(2) 0.270(3) 1.18(5) Biso O
O2' 0.028 0.261 0.730 1.18(5) Biso O
O3 0 0.5 0.206(2) 1.00(4) Biso O
O3' 0 0.5 0.794 1.00(4) Biso O
O4 0 0 0.233(3) 1.25(4) Biso O
O4' 0 0 0.767 1.25(4) Biso O
