#------------------------------------------------------------------------------
#$Date: 2016-02-14 16:26:36 +0200 (Sun, 14 Feb 2016) $
#$Revision: 176435 $
#$URL: svn://www.crystallography.net/cod/cif/2/00/53/2005336.cif $
#------------------------------------------------------------------------------
#
# This file is available in the Crystallography Open Database (COD),
# http://www.crystallography.net/. The original data for this entry
# were provided by IUCr Journals, http://journals.iucr.org/.
#
# The file may be used within the scientific community so long as
# proper attribution is given to the journal article from which the
# data were obtained.
#
data_2005336
loop_
_publ_author_name
'Bell, A. M. T.'
'Henderson, C. M. B.'
_publ_section_title
;
 Rietveld Refinement of the Orthorhombic <i>Pbca</i> Structures of
 Rb~2~CdSi~5~O~12~, Cs~2~MnSi~5~O~12~, Cs~2~CoSi~5~O~12~ , and
 Cs~2~NiSi~5~O~12~ Leucites by Synchrotron X-ray Powder Diffraction
;
_journal_issue                   9
_journal_name_full               'Acta Crystallographica Section C'
_journal_page_first              2132
_journal_page_last               2139
_journal_paper_doi               10.1107/S0108270196003162
_journal_volume                  52
_journal_year                    1996
_chemical_formula_moiety         'Cs2 Mn Si5 O12'
_chemical_formula_sum            'Cs2 Mn O12 Si5'
_chemical_formula_weight         653.17
_chemical_name_systematic        ' ?'
_space_group_IT_number           61
_symmetry_cell_setting           orthorhombic
_symmetry_space_group_name_Hall  '-P 2ac 2ab'
_symmetry_space_group_name_H-M   'P b c a'
_cell_angle_alpha                90
_cell_angle_beta                 90
_cell_angle_gamma                90
_cell_formula_units_Z            8
_cell_length_a                   13.6878(3)
_cell_length_b                   13.7931(3)
_cell_length_c                   13.7575(3)
_cell_measurement_temperature    293
_cell_volume                     2597.38(10)
_computing_cell_refinement
' PDPL-refcel program (Murray, Cockcroft & Fitch, 1990)'
_computing_data_collection       'In house software'
_computing_molecular_graphics    'CERIUS (Molecular Simulations Inc., 1994)'
_computing_structure_refinement
' PDPL-mprof Rietveld program (Murray, Cockcroft & Fitch, 1990)'
_diffrn_ambient_temperature      293
_diffrn_measurement_device
'high resolution powder diffractometer, SRS station 2.3'
_diffrn_radiation_monochromator  'silicon 1 1 1'
_diffrn_radiation_source         'Daresbury SRS bending magnet'
_diffrn_radiation_type           synchrotron
_diffrn_radiation_wavelength     1.29969
_exptl_crystal_colour            'pale pink'
_exptl_crystal_density_diffrn    3.341
_exptl_crystal_description       powder
_refine_ls_goodness_of_fit_obs   1.019
_refine_ls_number_constraints    24
_refine_ls_number_parameters     71
_refine_ls_number_reflns         1085
_refine_ls_restrained_S_obs      0.138
_refine_ls_R_factor_obs          0.126
_refine_ls_weighting_scheme
'normalisation factor/profile intensity + Background'
_refine_ls_wR_factor_obs         0.140
_cod_data_source_file            br1125.cif
_cod_data_source_block           Cs2MnSi5O12
_cod_original_cell_volume        2597.4(2)
_cod_original_formula_sum        'Cs2 Mn Si5 O12'
_cod_database_code               2005336
loop_
_symmetry_equiv_pos_as_xyz
x,y,z
0.5+x,0.5-y,-z
-x,0.5+y,0.5-z
0.5-x,-y,0.5+z
-x,-y,-z
0.5-x,0.5+y,z
x,0.5-y,0.5+z
0.5+x,y,0.5-z
loop_
_atom_site_label
_atom_site_occupancy
_atom_site_fract_x
_atom_site_fract_y
_atom_site_fract_z
_atom_site_B_iso_or_equiv
Cs1 1.000 0.1294(5) 0.1352(4) 0.1506(3) 0.25
Cs2 1.000 0.3777(5) 0.3905(3) 0.3888(3) 0.25
Mn1 1.000 0.380(1) 0.8374(7) 0.9337(7) 0.25
Si2 1.000 0.126(2) 0.665(1) 0.596(1) 0.25
Si3 1.000 0.584(2) 0.110(1) 0.634(1) 0.25
Si4 1.000 0.654(1) 0.598(1) 0.111(1) 0.25
Si5 1.000 0.898(1) 0.373(1) 0.818(1) 0.25
Si6 1.000 0.834(2) 0.918(1) 0.353(1) 0.25
O1 1.000 0.465(2) 0.379(3) 0.166(3) 0.25
O2 1.000 0.093(2) 0.502(2) 0.416(2) 0.25
O3 1.000 0.384(3) 0.165(2) 0.475(2) 0.25
O4 1.000 0.730(2) 0.412(3) 0.625(3) 0.25
O5 1.000 0.653(3) 0.724(2) 0.364(2) 0.25
O6 1.000 0.360(3) 0.622(2) 0.756(2) 0.25
O7 1.000 0.987(2) 0.889(3) 0.650(2) 0.25
O8 1.000 0.678(2) 0.963(2) 0.851(3) 0.25
O9 1.000 0.904(2) 0.642(2) 0.926(2) 0.25
O10 1.000 0.217(2) 0.904(3) 0.143(3) 0.25
O11 1.000 0.147(3) 0.198(2) 0.923(2) 0.25
O12 1.000 0.902(3) 0.151(2) 0.200(2) 0.25
loop_
_atom_type_symbol
_atom_type_scat_dispersion_real
_atom_type_scat_dispersion_imag
_atom_type_scat_source
Cs 0 0 International_Tables_Vol_IV_Table_2.3.1
Mn 0 0 International_Tables_Vol_IV_Table_2.3.1
Si 0 0 International_Tables_Vol_IV_Table_2.3.1
O 0 0 International_Tables_Vol_IV_Table_2.3.1
loop_
_geom_angle_atom_site_label_1
_geom_angle_atom_site_label_2
_geom_angle_atom_site_label_3
_geom_angle_site_symmetry_1
_geom_angle_site_symmetry_2
_geom_angle_site_symmetry_3
_geom_angle
_geom_angle_publ_flag
O4 Mn1 O7 3_656 1_555 8_456 98.0(10) yes
O4 Mn1 O9 3_656 1_555 2_467 117(2) yes
O4 Mn1 O11 3_656 1_555 6_555 110.0(10) yes
O7 Mn1 O9 8_456 1_555 2_467 113.0(10) yes
O7 Mn1 O11 8_456 1_555 6_555 117(2) yes
O9 Mn1 O11 2_467 1_555 6_555 104.0(10) yes
O1 Si2 O3 4_565 1_555 6_555 120(2) yes
O1 Si2 O5 4_565 1_555 2_466 108(2) yes
O1 Si2 O10 4_565 1_555 7_565 97(2) yes
O3 Si2 O5 6_555 1_555 2_466 110(2) yes
O3 Si2 O10 6_555 1_555 7_565 117(2) yes
O5 Si2 O10 2_466 1_555 7_565 103(2) yes
O1 Si3 O2 7_555 1_555 2_556 105(2) yes
O1 Si3 O6 7_555 1_555 3_646 101(2) yes
O1 Si3 O11 7_555 1_555 8_556 124(2) yes
O2 Si3 O6 2_556 1_555 3_646 114(2) yes
O2 Si3 O11 2_556 1_555 8_556 115(2) yes
O6 Si3 O11 3_646 1_555 8_556 97(2) yes
O2 Si4 O3 8_555 1_555 3_665 98(2) yes
O2 Si4 O4 8_555 1_555 4_664 118(2) yes
O2 Si4 O12 8_555 1_555 6_655 108(2) yes
O3 Si4 O4 3_655 1_555 4_664 117(2) yes
O3 Si4 O12 3_655 1_555 6_655 98(2) yes
O4 Si4 O12 4_664 1_555 6_655 115(2) yes
O5 Si5 O7 4_665 1_555 3_746 114(2) yes
O5 Si5 O8 4_665 1_555 6_645 104(2) yes
O5 Si5 O12 4_665 1_555 7_555 104(2) yes
O7 Si5 O8 3_746 1_555 6_645 114(2) yes
O7 Si5 O12 3_746 1_555 7_555 105(2) yes
O8 Si5 O12 6_645 1_555 7_555 116(2) yes
O6 Si6 O8 2_566 1_555 4_674 109.0(10) yes
O6 Si6 O9 2_566 1_555 7_564 106(2) yes
O6 Si6 O10 2_566 1_555 8_555 102(2) yes
O8 Si6 O9 4_674 1_555 7_564 126(2) yes
O8 Si6 O10 4_674 1_555 8_555 91(2) yes
O9 Si6 O10 7_564 1_555 8_555 120(2) yes
Si2 O1 Si3 4_564 1_555 7_554 126(2) yes
Si3 O2 Si4 2_456 1_555 8_455 134(2) yes
Si2 O3 Si4 6_545 1_555 3_645 135(2) yes
Mn1 O4 Si4 3_646 1_555 4_665 131(2) yes
Si2 O5 Si5 2_566 1_555 4_664 142(2) yes
Si3 O6 Si6 3_656 1_555 2_466 152(3) yes
Mn1 O7 Si5 8_556 1_555 3_756 144(2) yes
Si5 O8 Si6 6_655 1_555 4_675 133(2) yes
Mn1 O9 Si6 2_567 1_555 7_565 125(2) yes
Si2 O10 Si6 7_564 1_555 8_455 144(3) yes
Mn1 O11 Si3 6_545 1_555 8_456 130(2) yes
Si4 O12 Si5 6_645 1_555 7_554 129(2) yes
loop_
_geom_bond_atom_site_label_1
_geom_bond_atom_site_label_2
_geom_bond_site_symmetry_2
_geom_bond_distance
_geom_bond_publ_flag
Mn1 O4 3_656 1.99(3) yes
Mn1 O7 8_456 1.99(3) yes
Mn1 O9 2_467 1.97(2) yes
Mn1 O11 6_555 1.97(2) yes
Si2 O1 4_565 1.69(4) yes
Si2 O3 6_555 1.67(3) yes
Si2 O5 2_466 1.67(3) yes
Si2 O10 7_565 1.69(4) yes
Si3 O1 7_555 1.70(4) yes
Si3 O2 2_556 1.69(3) yes
Si3 O6 3_646 1.71(3) yes
Si3 O11 8_556 1.69(3) yes
Si4 O2 8_555 1.61(4) yes
Si4 O3 3_655 1.59(3) yes
Si4 O4 4_664 1.61(3) yes
Si4 O12 6_655 1.63(4) yes
Si5 O5 4_665 1.63(3) yes
Si5 O7 3_746 1.66(3) yes
Si5 O8 6_645 1.68(4) yes
Si5 O12 7_555 1.65(3) yes
Si6 O6 2_566 1.64(3) yes
Si6 O8 4_674 1.66(3) yes
Si6 O9 7_564 1.62(3) yes
Si6 O10 8_555 1.62(3) yes
Cs1 O1 6_545 3.76(4) yes
Cs1 O2 3_545 3.68(3) yes
Cs1 O3 8_455 3.80(4) yes
Cs1 O4 2_456 3.44(4) yes
Cs1 O5 3_645 3.23(3) yes
Cs1 O6 4_564 3.66(3) yes
Cs1 O7 5_666 3.19(3) yes
Cs1 O8 5_666 2.96(3) yes
Cs1 O9 5_666 3.28(3) yes
Cs1 O10 1_545 3.41(4) yes
Cs1 O11 1_554 3.25(3) yes
Cs1 O12 1_455 3.19(4) yes
Cs2 O1 1_555 3.29(4) yes
Cs2 O2 1_555 4.20(3) yes
Cs2 O3 1_555 3.33(3) yes
Cs2 O4 5_666 3.10(3) yes
Cs2 O5 5_666 3.77(3) yes
Cs2 O6 4_564 3.73(4) yes
Cs2 O7 2_466 3.43(3) yes
Cs2 O8 3_646 3.80(4) yes
Cs2 O9 4_664 3.06(3) yes
Cs2 O10 6_545 3.62(4) yes
Cs2 O11 7_554 3.41(3) yes
Cs2 O12 8_455 3.54(3) yes
