#------------------------------------------------------------------------------
#$Date: 2016-02-14 16:26:36 +0200 (Sun, 14 Feb 2016) $
#$Revision: 176435 $
#$URL: svn://www.crystallography.net/cod/cif/2/01/63/2016393.cif $
#------------------------------------------------------------------------------
#
# This file is available in the Crystallography Open Database (COD),
# http://www.crystallography.net/. The original data for this entry
# were provided by IUCr Journals, http://journals.iucr.org/.
#
# The file may be used within the scientific community so long as
# proper attribution is given to the journal article from which the
# data were obtained.
#
data_2016393
loop_
_publ_author_name
'A. van der Lee'
'M. Beaurain'
'P. Armand'
_publ_section_title
;
 LiFe(MoO~4~)~2~, LiGa(MoO~4~)~2~ and Li~3~Ga(MoO~4~)~3~
;
_journal_coeditor_code           IZ3035
_journal_issue                   1
_journal_name_full               'Acta Crystallographica Section C'
_journal_page_first              i1
_journal_page_last               i4
_journal_paper_doi               10.1107/S0108270107061975
_journal_volume                  64
_journal_year                    2008
_chemical_formula_iupac          'Li Ga (Mo O4)2'
_chemical_formula_moiety         'Ga1 Li1 Mo2 O8'
_chemical_formula_sum            'Ga Li Mo2 O8'
_chemical_formula_weight         396.54
_chemical_name_systematic
;
lithium gallium dimolybdate
;
_space_group_IT_number           2
_symmetry_cell_setting           triclinic
_symmetry_space_group_name_Hall  '-P 1'
_symmetry_space_group_name_H-M   'P -1'
_atom_sites_solution_primary     direct
_cell_angle_alpha                90.915(4)
_cell_angle_beta                 110.648(4)
_cell_angle_gamma                105.253(4)
_cell_formula_units_Z            2
_cell_length_a                   6.7232(3)
_cell_length_b                   7.0982(3)
_cell_length_c                   7.2580(4)
_cell_measurement_reflns_used    5267
_cell_measurement_temperature    293
_cell_measurement_theta_max      32.2560
_cell_measurement_theta_min      2.9784
_cell_volume                     310.43(3)
_computing_cell_refinement       'CrysAlis RED (Oxford Diffraction, 2007)'
_computing_data_collection       'CrysAlis CCD (Oxford Diffraction, 2007)'
_computing_data_reduction        'CrysAlis RED (Oxford Diffraction, 2007)'
_computing_molecular_graphics
;
CAMERON (Watkin <i>et al.</i>,  1996) and DrawXtl (Finger <i>et al.</i>,
2007)
;
_computing_publication_material  'CRYSTALS (Betteridge <i>et al.</i>,  2003)'
_computing_structure_refinement  'CRYSTALS (Betteridge <i>et al.</i>,  2003)'
_computing_structure_solution    'SUPERFLIP (Palatinus & Chapuis, 2007)'
_diffrn_ambient_temperature      293
_diffrn_detector_area_resol_mean 8.4205
_diffrn_measured_fraction_theta_full 0.996
_diffrn_measured_fraction_theta_max 0.891
_diffrn_measurement_device       'Oxford Diffraction Xcalibur'
_diffrn_measurement_device_type  'Oxford Diffraction Xcalibur'
_diffrn_measurement_method       \w
_diffrn_radiation_monochromator  graphite
_diffrn_radiation_source         'Enhance (Mo) X-ray Source'
_diffrn_radiation_type           'Mo K\a'
_diffrn_radiation_wavelength     0.7107
_diffrn_reflns_av_R_equivalents  0.021
_diffrn_reflns_av_sigmaI/netI    0.0110
_diffrn_reflns_limit_h_max       9
_diffrn_reflns_limit_h_min       -9
_diffrn_reflns_limit_k_max       10
_diffrn_reflns_limit_k_min       -10
_diffrn_reflns_limit_l_max       10
_diffrn_reflns_limit_l_min       -10
_diffrn_reflns_number            5166
_diffrn_reflns_theta_full        29.144
_diffrn_reflns_theta_max         32.382
_diffrn_reflns_theta_min         2.996
_diffrn_standards_decay_%        0
_diffrn_standards_interval_count '50 frames'
_diffrn_standards_number         '2 frames'
_exptl_absorpt_coefficient_mu    8.287
_exptl_absorpt_correction_T_max  1.00000
_exptl_absorpt_correction_T_min  0.17284
_exptl_absorpt_correction_type   multi-scan
_exptl_absorpt_process_details
;
[CrysAlis RED (Oxford Diffraction, 2007);
empirical absorption correction using spherical harmonics,
implemented in SCALE3 ABSPACK scaling algorithm]
;
_exptl_crystal_colour            light-pink
_exptl_crystal_density_diffrn    4.242
_exptl_crystal_density_method    'not measured'
_exptl_crystal_description       prism
_exptl_crystal_F_000             364
_exptl_crystal_size_max          0.43
_exptl_crystal_size_mid          0.32
_exptl_crystal_size_min          0.11
_refine_diff_density_max         1.34
_refine_diff_density_min         -3.97
_refine_ls_extinction_method     None
_refine_ls_goodness_of_fit_ref   0.8242
_refine_ls_matrix_type           full
_refine_ls_number_parameters     109
_refine_ls_number_reflns         1977
_refine_ls_number_restraints     0
_refine_ls_R_factor_all          0.0430
_refine_ls_R_factor_gt           0.0419
_refine_ls_shift/su_max          0.000266
_refine_ls_structure_factor_coef Fsqd
_refine_ls_weighting_details
;
Method = Modified Sheldrick, w = 1/[\s^2^(F^2^) + (0.10P)^2^ + 8.34P],
where P = [max(Fo^2^,0) + 2Fc^2^]/3
;
_refine_ls_weighting_scheme      calc
_refine_ls_wR_factor_all         0.1158
_refine_ls_wR_factor_gt          0.1149
_refine_ls_wR_factor_ref         0.1158
_reflns_number_gt                1880
_reflns_number_total             1977
_reflns_threshold_expression     I>2\s(I)
_cod_data_source_file            iz3035.cif
_cod_data_source_block           II
_cod_original_sg_symbol_H-M      'P -1 '
_cod_original_formula_sum        'Ga1 Li1 Mo2 O8'
_cod_database_code               2016393
_cod_database_fobs_code          2016393
loop_
_symmetry_equiv_pos_as_xyz
x,y,z
-x,-y,-z
loop_
_atom_site_type_symbol
_atom_site_label
_atom_site_fract_x
_atom_site_fract_y
_atom_site_fract_z
_atom_site_U_iso_or_equiv
_atom_site_adp_type
_atom_site_occupancy
Mo Mo1 0.33063(7) 0.57523(6) 0.29138(6) 0.0066 Uani 1.0000
Mo Mo2 0.82150(6) -0.03507(6) 0.21800(6) 0.0055 Uani 1.0000
Ga Ga3 0.40267(9) 0.09926(8) 0.31997(8) 0.0050 Uani 1.0000
Li Li4 0.771(2) 0.448(2) 0.2679(18) 0.0223 Uani 1.0000
O O5 0.4190(6) 0.8422(5) 0.3865(6) 0.0072 Uani 1.0000
O O6 0.2492(8) 0.5715(7) 0.0399(6) 0.0168 Uani 1.0000
O O7 0.0929(7) 0.4831(7) 0.3369(7) 0.0157 Uani 1.0000
O O8 0.4794(7) 0.3815(5) 0.3496(6) 0.0098 Uani 1.0000
O O9 0.6875(6) 0.1321(6) 0.2738(6) 0.0091 Uani 1.0000
O O10 0.7610(7) -0.0413(7) -0.0394(6) 0.0150 Uani 1.0000
O O11 0.7163(7) -0.2742(6) 0.2614(7) 0.0137 Uani 1.0000
O O12 1.1128(6) 0.0500(6) 0.3484(6) 0.0100 Uani 1.0000
loop_
_atom_site_aniso_label
_atom_site_aniso_U_11
_atom_site_aniso_U_22
_atom_site_aniso_U_33
_atom_site_aniso_U_12
_atom_site_aniso_U_13
_atom_site_aniso_U_23
Mo1 0.0064(2) 0.0035(2) 0.0082(2) 0.00214(14) 0.00038(15) 0.00054(14)
Mo2 0.00429(19) 0.0061(2) 0.0059(2) 0.00210(14) 0.00137(14) 0.00033(14)
Ga3 0.0059(2) 0.0038(2) 0.0055(2) 0.00177(18) 0.00191(19) 0.00095(17)
Li4 0.017(5) 0.030(6) 0.016(5) 0.004(5) 0.003(4) 0.004(4)
O5 0.0106(16) 0.0039(14) 0.0078(15) 0.0030(12) 0.0035(12) 0.0015(12)
O6 0.0196(19) 0.021(2) 0.0069(17) 0.0063(16) 0.0009(14) 0.0009(15)
O7 0.0101(17) 0.0141(18) 0.022(2) 0.0042(15) 0.0038(15) 0.0062(16)
O8 0.0101(16) 0.0045(15) 0.0142(17) 0.0033(12) 0.0028(13) 0.0015(13)
O9 0.0074(15) 0.0079(15) 0.0147(17) 0.0029(12) 0.0067(13) 0.0033(13)
O10 0.0104(16) 0.026(2) 0.0046(16) 0.0029(15) 0.0004(13) -0.0004(15)
O11 0.0156(18) 0.0082(16) 0.0182(19) 0.0025(14) 0.0078(15) 0.0016(14)
O12 0.0043(14) 0.0136(17) 0.0113(17) 0.0020(13) 0.0024(12) 0.0009(13)
loop_
_atom_type_symbol
_atom_type_scat_dispersion_real
_atom_type_scat_dispersion_imag
_atom_type_scat_source
Ga 0.2307 1.6083 'International Tables Vol C 4.2.6.8 and 6.1.1.4'
Li -0.0003 0.0001 'International Tables Vol C 4.2.6.8 and 6.1.1.4'
Mo -1.6832 0.6857 'International Tables Vol C 4.2.6.8 and 6.1.1.4'
O 0.0106 0.0060 'International Tables Vol C 4.2.6.8 and 6.1.1.4'
loop_
_geom_angle_atom_site_label_1
_geom_angle_atom_site_label_2
_geom_angle_atom_site_label_3
_geom_angle_site_symmetry_1
_geom_angle_site_symmetry_3
_geom_angle
_geom_angle_publ_flag
O8 Mo1 O11 2_666 1_565 88.42(14) no
O8 Mo1 Mo1 2_666 2_666 31.26(9) no
O11 Mo1 Mo1 1_565 2_666 80.22(10) no
O8 Mo1 Ga3 2_666 2_666 36.04(9) no
O11 Mo1 Ga3 1_565 2_666 76.80(10) no
Mo1 Mo1 Ga3 2_666 2_666 63.451(16) no
O8 Mo1 O5 2_666 . 70.57(14) no
O11 Mo1 O5 1_565 . 73.82(15) no
Mo1 Mo1 O5 2_666 . 97.24(12) no
Ga3 Mo1 O5 2_666 . 34.66(11) no
O8 Mo1 O6 2_666 . 168.27(19) no
O11 Mo1 O6 1_565 . 79.96(19) no
Mo1 Mo1 O6 2_666 . 145.21(17) no
Ga3 Mo1 O6 2_666 . 137.31(16) no
O5 Mo1 O6 . . 104.3(2) no
O8 Mo1 O7 2_666 . 85.70(18) no
O11 Mo1 O7 1_565 . 174.08(18) no
Mo1 Mo1 O7 2_666 . 95.03(15) no
Ga3 Mo1 O7 2_666 . 97.95(16) no
O5 Mo1 O7 . . 103.48(19) no
O8 Mo1 O8 2_666 . 73.69(17) no
O11 Mo1 O8 1_565 . 73.84(15) no
Mo1 Mo1 O8 2_666 . 42.43(13) no
Ga3 Mo1 O8 2_666 . 102.98(12) no
O5 Mo1 O8 . . 131.73(17) no
O6 Mo1 O7 . . 105.9(2) no
O6 Mo1 O8 . . 104.2(2) no
O7 Mo1 O8 . . 105.05(19) no
O9 Mo2 O10 . . 105.2(2) no
O9 Mo2 O11 . . 113.25(19) no
O10 Mo2 O11 . . 106.8(2) no
O9 Mo2 O12 . . 110.97(18) no
O10 Mo2 O12 . . 109.8(2) no
O11 Mo2 O12 . . 110.6(2) no
O5 Ga3 O12 2_666 1_455 94.78(16) no
O5 Ga3 O10 2_666 2_655 178.50(17) no
O12 Ga3 O10 1_455 2_655 86.56(18) no
O5 Ga3 O5 2_666 1_545 78.99(17) no
O12 Ga3 O5 1_455 1_545 91.04(16) no
O10 Ga3 O5 2_655 1_545 100.34(19) no
O5 Ga3 Mo1 2_666 2_666 31.86(10) no
O12 Ga3 Mo1 1_455 2_666 94.96(12) no
O10 Ga3 Mo1 2_655 2_666 148.74(15) no
O5 Ga3 Mo1 1_545 2_666 110.83(12) no
O5 Ga3 Ga3 2_666 2_656 38.31(10) no
O12 Ga3 Ga3 1_455 2_656 93.83(12) no
O10 Ga3 Ga3 2_655 2_656 141.00(15) no
O5 Ga3 Ga3 1_545 2_656 40.67(11) no
Mo1 Ga3 Ga3 2_666 2_656 70.17(2) no
O5 Ga3 O8 2_666 . 79.99(16) no
O12 Ga3 O8 1_455 . 97.31(17) no
O10 Ga3 O8 2_655 . 100.52(19) no
O5 Ga3 O8 1_545 . 157.94(17) no
Mo1 Ga3 O8 2_666 . 48.27(12) no
O5 Ga3 O9 2_666 . 88.69(16) no
O12 Ga3 O9 1_455 . 175.54(16) no
O10 Ga3 O9 2_655 . 89.94(18) no
O5 Ga3 O9 1_545 . 86.88(15) no
Mo1 Ga3 O9 2_666 . 89.46(12) no
Ga3 Ga3 O8 2_656 . 118.03(12) no
Ga3 Ga3 O9 2_656 . 87.16(11) no
O8 Ga3 O9 . . 86.03(16) no
Ga3 O5 Ga3 2_666 1_565 101.01(17) no
Ga3 O5 Mo1 2_666 . 113.48(18) no
Ga3 O5 Mo1 1_565 . 145.5(2) no
Mo1 O8 Ga3 2_666 . 95.69(16) no
Mo1 O8 Mo1 2_666 . 106.31(17) no
Ga3 O8 Mo1 . . 137.4(2) no
Ga3 O9 Mo2 . . 134.1(2) no
Ga3 O10 Mo2 2_655 . 160.1(3) no
Mo1 O11 Mo2 1_545 . 126.6(2) no
Ga3 O12 Mo2 1_655 . 144.0(2) no
O6 Li4 O7 2_665 2_666 165.2(6) no
O6 Li4 O8 2_665 . 123.1(6) no
O7 Li4 O8 2_666 . 71.5(4) no
O6 Li4 O9 2_665 . 94.0(5) no
O7 Li4 O9 2_666 . 92.2(5) no
O8 Li4 O9 . . 76.2(4) no
O6 Li4 O11 2_665 1_565 93.5(5) no
O7 Li4 O11 2_666 1_565 86.3(5) no
O8 Li4 O11 . 1_565 80.4(5) no
O9 Li4 O11 . 1_565 155.8(7) no
loop_
_geom_bond_atom_site_label_1
_geom_bond_atom_site_label_2
_geom_bond_site_symmetry_2
_geom_bond_distance
_geom_bond_publ_flag
Mo1 O8 2_666 2.437(4) no
Mo1 O11 1_565 2.619(4) no
Mo1 Mo1 2_666 3.4665(8) no
Mo1 Ga3 2_666 3.2489(7) no
Mo1 O5 . 1.870(4) yes
Mo1 O6 . 1.709(4) yes
Mo1 O7 . 1.709(4) yes
Mo1 O8 . 1.874(4) yes
Mo2 O9 . 1.786(4) yes
Mo2 O10 . 1.763(4) yes
Mo2 O11 . 1.739(4) yes
Mo2 O12 . 1.775(4) yes
Ga3 O5 2_666 2.014(4) yes
Ga3 O12 1_455 1.972(4) yes
Ga3 O10 2_655 1.919(4) yes
Ga3 O5 1_545 1.916(4) yes
Ga3 Ga3 2_656 3.0338(11) no
Ga3 O8 . 1.921(4) yes
Ga3 O9 . 2.014(4) yes
Li4 O6 2_665 2.188(13) yes
Li4 O7 1_655 1.985(13) yes
Li4 O7 2_666 2.679(13) yes
Li4 O8 . 2.183(13) yes
Li4 O9 . 2.167(14) yes
Li4 O11 1_565 2.099(14) yes
