#------------------------------------------------------------------------------
#$Date: 2019-12-26 21:44:39 +0200 (Thu, 26 Dec 2019) $
#$Revision: 246115 $
#$URL: file:///home/coder/svn-repositories/cod/cif/2/02/18/2021896.cif $
#------------------------------------------------------------------------------
#
# This file is available in the Crystallography Open Database (COD),
# http://www.crystallography.net/. The original data for this entry
# were provided by IUCr Journals, http://journals.iucr.org/.
#
# The file may be used within the scientific community so long as
# proper attribution is given to the journal article from which the
# data were obtained.
#
data_2021896
loop_
_publ_author_name
'Federicci, R\'emi'
'Baptiste, Benoit'
'Finocchi, Fabio'
'Popa, Florin'
'Brohan, Luc'
'B\'eneut, Keevin'
'Giura, Paola'
'Rousse, Gwena\"elle'
'Descamps-Mandine, Armel'
'Douillard, Thierry'
'Shukla, Abhay'
'Leridon, Brigitte'
_publ_section_title
;
 The crystal structure of Rb2Ti2O5&#x000D;
;
_journal_coeditor_code           DK5058SUP1
_journal_issue                   6
_journal_name_full
'Acta Crystallographica Section B Structural Science, Crystal Engineering and Materials'
_journal_page_first              1142
_journal_paper_doi               10.1107/S2052520617013646
_journal_volume                  73
_journal_year                    2017
_chemical_formula_moiety         '0.5(O10 Rb4 Ti4)'
_chemical_formula_sum            'O5 Rb2 Ti2'
_chemical_formula_weight         346.74
_space_group_crystal_system      monoclinic
_space_group_IT_number           12
_space_group_name_Hall           '-C 2y'
_space_group_name_H-M_alt        'C 1 2/m 1'
_atom_sites_solution_primary     direct
_audit_creation_date             2016-03-30
_audit_creation_method
;
Olex2 1.2
(compiled 2016.02.19 svn.r3266 for OlexSys, GUI svn.r5155)
;
_audit_update_record
;
2017-04-21 # Formatted by publCIF

;
_cell_angle_alpha                90
_cell_angle_beta                 100.308(12)
_cell_angle_gamma                90
_cell_formula_units_Z            2
_cell_length_a                   11.3370(13)
_cell_length_b                   3.8244(5)
_cell_length_c                   6.9946(8)
_cell_measurement_reflns_used    1212
_cell_measurement_temperature    293(2)
_cell_measurement_theta_max      33.1390
_cell_measurement_theta_min      2.9490
_cell_volume                     298.37(6)
_computing_cell_refinement       'CrysAlisPro 1.171.38.41 (Rigaku OD, 2015)'
_computing_data_collection       'CrysAlisPro 1.171.38.41 (Rigaku OD, 2015)'
_computing_data_reduction        'CrysAlisPro 1.171.38.41 (Rigaku OD, 2015)'
_computing_molecular_graphics    'Olex2 (Dolomanov et al., 2009)'
_computing_publication_material  'Olex2 (Dolomanov et al., 2009)'
_computing_structure_refinement  'ShelXL (Sheldrick, 2015)'
_computing_structure_solution    'ShelXT (Sheldrick, 2015)'
_diffrn_ambient_temperature      293(2)
_diffrn_detector                 'CCD plate'
_diffrn_measured_fraction_theta_full 1.000
_diffrn_measured_fraction_theta_max 1.000
_diffrn_measurement_details
;
List of Runs (angles in degrees, time in seconds):

  # Type    Start    End  Width  t~exp~   \w     \q     \k     \f   Frames
--------------------------------------------------------------------------
  1  \w      0.17  65.17   1.00   20.00    --   26.00 -94.50 145.00   65
  2  \f   -360.01   9.00   1.00   20.00 -12.39  24.00 -49.50    --   369
  3  \w    -33.32  62.68   1.00   20.00    --  -20.00  70.50 -25.00   96
  4  \f    180.35 231.35   1.00   20.00 -28.16 -24.00 140.50    --    51
;
_diffrn_measurement_device       'abstract diffractometer'
_diffrn_measurement_device_type
'Saxi-CrysAlisPro-abstract goniometer imported SAXI images'
_diffrn_measurement_method       '\w and \f scans'
_diffrn_orient_matrix_type
'CrysAlisPro convention (1999,Acta A55,543-557)'
_diffrn_orient_matrix_UB_11      0.0325985000
_diffrn_orient_matrix_UB_12      -0.0049140000
_diffrn_orient_matrix_UB_13      0.0964281000
_diffrn_orient_matrix_UB_21      -0.0426986000
_diffrn_orient_matrix_UB_22      -0.1175328000
_diffrn_orient_matrix_UB_23      0.0263517000
_diffrn_orient_matrix_UB_31      0.0340506000
_diffrn_orient_matrix_UB_32      -0.1434629000
_diffrn_orient_matrix_UB_33      -0.0248939000
_diffrn_radiation_monochromator  graphite
_diffrn_radiation_probe          x-ray
_diffrn_radiation_type           MoK\a
_diffrn_radiation_wavelength     0.71073
_diffrn_reflns_av_R_equivalents  0.0212
_diffrn_reflns_av_unetI/netI     0.0155
_diffrn_reflns_Laue_measured_fraction_full 1.000
_diffrn_reflns_Laue_measured_fraction_max 1.000
_diffrn_reflns_limit_h_max       14
_diffrn_reflns_limit_h_min       -13
_diffrn_reflns_limit_k_max       3
_diffrn_reflns_limit_k_min       -4
_diffrn_reflns_limit_l_max       8
_diffrn_reflns_limit_l_min       -8
_diffrn_reflns_number            1389
_diffrn_reflns_point_group_measured_fraction_full 1.000
_diffrn_reflns_point_group_measured_fraction_max 1.000
_diffrn_reflns_theta_full        25.242
_diffrn_reflns_theta_max         26.363
_diffrn_reflns_theta_min         2.960
_diffrn_source                   'fine-focus sealed X-ray tube'
_diffrn_source_type              'Enhance (Mo) X-ray Source'
_exptl_absorpt_coefficient_mu    18.824
_exptl_absorpt_correction_T_max  1.00000
_exptl_absorpt_correction_T_min  0.32344
_exptl_absorpt_correction_type   multi-scan
_exptl_absorpt_process_details
;
CrysAlisPro 1.171.38.41 (Rigaku Oxford Diffraction, 2015)
Empirical absorption correction using spherical harmonics,
 implemented in SCALE3 ABSPACK scaling algorithm.
;
_exptl_crystal_colour            'clear light colourless'
_exptl_crystal_colour_lustre     clear
_exptl_crystal_colour_modifier   light
_exptl_crystal_colour_primary    colourless
_exptl_crystal_density_diffrn    3.860
_exptl_crystal_description       needle
_exptl_crystal_F_000             316
_exptl_crystal_size_max          0.3
_exptl_crystal_size_mid          0.1
_exptl_crystal_size_min          0.05
_refine_diff_density_max         0.678
_refine_diff_density_min         -1.447
_refine_diff_density_rms         0.218
_refine_ls_extinction_method     none
_refine_ls_goodness_of_fit_ref   1.173
_refine_ls_hydrogen_treatment    undef
_refine_ls_matrix_type           full
_refine_ls_number_parameters     29
_refine_ls_number_reflns         351
_refine_ls_number_restraints     0
_refine_ls_restrained_S_all      1.173
_refine_ls_R_factor_all          0.0293
_refine_ls_R_factor_gt           0.0279
_refine_ls_shift/su_max          0.000
_refine_ls_shift/su_mean         0.000
_refine_ls_structure_factor_coef Fsqd
_refine_ls_weighting_details
'w=1/[\s^2^(Fo^2^)+(0.0437P)^2^+1.2419P] where P=(Fo^2^+2Fc^2^)/3'
_refine_ls_weighting_scheme      calc
_refine_ls_wR_factor_gt          0.0714
_refine_ls_wR_factor_ref         0.0725
_reflns_Friedel_coverage         0.000
_reflns_number_gt                333
_reflns_number_total             351
_reflns_threshold_expression     'I > 2\s(I)'
_cod_data_source_file            dk5058sup1.cif
_cod_data_source_block           II
_cod_database_code               2021896
_publcif_datablock.id            {a1145387-be42-4378-941b-59a9ea0b78fd}
_chemical_oxdiff_formula         'Rb2 Ti2 O5'
_shelx_space_group_comment
;
The symmetry employed for this shelxl refinement is uniquely defined
by the following loop, which should always be used as a source of
symmetry information in preference to the above space-group names.
They are only intended as comments.
;
_reflns_odcompleteness_completeness 100.00
_reflns_odcompleteness_iscentric 1
_reflns_odcompleteness_theta     26.32
_olex2_refinement_description
;
;
_shelx_res_file
;
    rb2ti2o5_2.res created by SHELXL-2014/7

TITL rb2ti2o5_2_a.res in C2/m
REM Old TITL rb2ti2o5_2 in C2/m #12
REM SHELXT solution in C2/m
REM R1 0.055, Rweak 0.004, Alpha 0.012, Orientation as input
REM Formula found by SHELXT: O5 Ti2 Rb2
CELL 0.71073 11.337012 3.824363 6.994564 90 100.3077 90
ZERR 2 0.00127 0.000515 0.000817 0 0.0118 0
LATT 7
SYMM -X,+Y,-Z
SFAC O Ti Rb
UNIT 10 4 4

L.S. 10
PLAN  20
BOND $H
LIST 6
fmap 2
ACTA
REM <olex2.extras>
REM <HklSrc "%.\\rb2ti2o5_2.hkl">
REM </olex2.extras>

WGHT    0.043700    1.241900
FVAR       0.51570
RB1   3    0.098507    0.500000    0.848124    10.50000    0.01886    0.02098 =
         0.02409    0.00000    0.00617    0.00000
TI1   2    0.352494    0.500000    0.588495    10.50000    0.00438    0.01023 =
         0.01733    0.00000    0.00066    0.00000
O3    1    0.177991    0.500000    0.479708    10.50000    0.00572    0.01154 =
         0.02404    0.00000   -0.00166    0.00000
O1    1    0.500000    0.500000    0.500000    10.25000    0.00874    0.01255 =
         0.03956    0.00000    0.00876    0.00000
O2    1    0.376241    0.500000    0.836695    10.50000    0.01937    0.02236 =
         0.01856    0.00000   -0.00113    0.00000
HKLF 4

REM  rb2ti2o5_2_a.res in C2/m
REM R1 =  0.0279 for     333 Fo > 4sig(Fo)  and  0.0293 for all     351 data
REM     29 parameters refined using      0 restraints

END

WGHT      0.0437      1.2419

REM Highest difference peak  0.678,  deepest hole -1.447,  1-sigma level  0.218
Q1    1   0.1423  0.3586  0.8328  11.00000  0.05    0.68
Q2    1   0.0700  0.1055  0.8024  11.00000  0.05    0.62
Q3    1   0.5104  0.5000  0.2995  10.50000  0.05    0.55
Q4    1  -0.0202  0.6039  0.7807  11.00000  0.05    0.53
Q5    1   0.1756  0.3910  0.7289  11.00000  0.05    0.52
Q6    1   0.0000  0.6371  0.8188  11.00000  0.05    0.52
Q7    1   0.2253  0.5000  0.5056  10.50000  0.05    0.49
Q8    1   0.3809  0.5000  0.9792  10.50000  0.05    0.49
Q9    1   0.2956  0.3510  0.5988  11.00000  0.05    0.48
Q10   1   0.5750  0.6199  0.5182  11.00000  0.05    0.48
Q11   1   0.3598  0.4018  0.8456  11.00000  0.05    0.47
Q12   1   0.1479  0.3915  0.4049  11.00000  0.05    0.47
Q13   1   0.3354  0.5000  0.7487  10.50000  0.05    0.47
Q14   1   0.0698  0.5000  1.0196  10.50000  0.05    0.47
Q15   1   0.1600  0.0898  0.7606  11.00000  0.05    0.47
Q16   1   0.0933  0.3915  0.4785  11.00000  0.05    0.46
Q17   1   0.4602  0.3981  0.9260  11.00000  0.05    0.44
Q18   1   0.0170  0.3699  0.9605  11.00000  0.05    0.44
Q19   1   0.2352  0.4013  0.3626  11.00000  0.05    0.44
Q20   1   0.2579  0.3713  0.7027  11.00000  0.05    0.43
;
_shelx_res_checksum              18187
_shelx_hkl_file
;
   0   0   1  116.16    1.43
   0   0  -1   91.15    1.84
   0   0   1  129.72    1.80
   0   0  -1  107.90    1.60
   0   0  -1  123.15    1.49
   0   0   1  105.10    1.17
   0   0  -1  116.04    1.25
   0   0   2   75.84    2.79
   0   0  -2   85.98    2.13
   0   0   2   63.78    1.58
   0   0  -2   92.25    3.93
   0   0   2   84.80    2.30
   0   0  -2   65.90    2.56
   0   0  -2   82.32    2.55
   0   0  -3 5014.63   14.09
   0   0  -3 4962.43   14.92
   0   0  -3 5125.84   16.47
   0   0   3 5000.04   11.22
   0   0  -3 5005.65   11.30
   0   0   3 5082.00   15.50
   0   0   3 5038.16   15.72
   0   0  -4 1809.86    8.30
   0   0   4 1825.38   11.09
   0   0  -4 1838.23   10.18
   0   0  -4 1816.00   11.72
   0   0  -5  233.73    4.55
   0   0  -5  253.79    5.73
   0   0  -6  286.27    5.91
   0   0  -6  285.32    6.66
   0   0  -6  290.81    8.89
   0   0   7 1072.34   12.88
   0   0  -7  968.61   11.16
   0   0   8    9.88    6.24
   0   0  -8   -0.75    5.88
   0   2   0 9954.11   20.09
   0  -2   0 9999.00   17.22
   0  -2   0 9946.94   21.95
   0   2  -1   37.83    3.03
   0  -2  -1   38.26    1.94
   0  -2   1   36.08    2.93
   0  -2  -1   31.63    3.99
   0  -2  -1   40.64    1.97
   0   2   1   39.15    2.44
   0   2   2   19.62    2.57
   0  -2   2   26.28    2.04
   0  -2  -2   28.30    2.06
   0  -2   2   22.65    3.52
   0  -2  -2   33.64    4.20
   0   2  -2   24.96    3.17
   0  -2   2   22.69    2.58
   0  -2  -2   29.05    2.36
   0  -2  -3 2434.25   10.43
   0  -2  -3 2567.82    8.96
   0  -2   3 2504.48   10.71
   0  -2  -3 2465.96   13.45
   0   2  -3 2503.73   13.06
   0  -2   3 2458.57   11.78
   0   2   3 2513.18   11.05
   0   2  -4 1184.81   10.44
   0  -2  -4 1126.27   10.81
   0  -2   4 1186.93   11.47
   0  -2  -4 1180.91    7.32
   0  -2   4 1139.46    9.13
   0   2  -5  181.60    6.45
   0  -2   5  189.54    6.21
   0   2   5  193.07    5.56
   0  -2  -5  206.56    4.99
   0  -2   5  189.60    7.26
   0  -2  -5  167.24    6.61
   0   2  -6  168.46    6.93
   0  -2   6  168.78    6.86
   0  -2   6  173.14    7.79
   0  -2  -6  157.21    5.04
   0  -2   7  731.91   12.19
   0  -2   7  638.95   10.53
   0  -2  -7  600.01   10.13
   0  -2  -7  692.34    8.62
   0   2  -7  679.27   11.16
   0  -4   0 1174.99    4.48
   0  -4   0 1799.11   13.27
   0  -4   1    8.03    2.63
   0  -4  -1   13.32    6.08
   0  -4   1    5.35    4.84
   0  -4  -2   16.29    6.39
   0  -4   2    4.81    3.23
   0  -4   2    9.02    4.76
   0  -4   3  458.94    7.20
   0  -4  -3  559.04   10.49
   0  -4   4  293.99    8.30
   0  -4  -4  335.32    9.26
   1   1  -8  274.24    8.66
   1  -1  -8  293.27    8.22
  -1  -1   8  289.92    9.27
   1  -1  -8  304.67    7.45
  -1   1   7  188.44    6.96
   1  -1  -7  176.10    5.97
   1  -1  -7  187.69    6.80
  -1  -1   6  966.12   11.41
   1  -1  -6  990.63   10.16
   1  -1  -6  987.85    9.22
   1   1  -6  952.73   11.39
   1   1  -6  934.99   10.42
   1  -1  -5   97.76    5.05
   1   1  -5   91.74    5.94
   1   1  -5   93.91    5.04
  -1  -1   5  103.44    5.89
   1  -1  -5  102.50    4.37
   1  -1  -5   89.57    5.15
  -1   1   5   79.12    4.99
   1   1  -4  234.38    5.25
   1  -1  -4  242.27    4.17
  -1  -1   4  212.05    5.77
  -1   1   4  222.61    4.64
   1  -1  -4  224.89    4.71
   1  -1  -4  252.73    5.19
  -1  -1   3 3465.55   14.69
  -1   1   3 3441.77   11.57
   1  -1  -3 3459.66   12.87
   1  -1  -3 3477.33   10.18
   1   1  -3 3435.40   12.97
  -1  -1   3 3486.32   14.24
  -1   1   2 1432.45    5.75
   1  -1  -2 1389.34    7.39
  -1  -1   2 1348.03    6.98
  -1  -1   2 1370.81    8.12
   1   1  -2 1337.41    7.36
   1  -1  -2 1390.01    4.63
   1  -1  -2 1407.01    5.31
  -1   1   1   56.09    1.17
  -1   1   1   58.33    1.25
   1   1  -1   48.12    2.19
  -1  -1   1   49.14    2.52
  -1  -1   1   61.68    2.37
   1  -1  -1   63.37    2.92
   1   1  -1   62.85    2.60
  -1   1   0  340.30    3.28
  -1  -1   0  316.33    3.32
   1  -1   0  312.24    2.63
  -1   1   0  352.84    2.12
  -1   1   0  291.01    2.49
   1   1   0  310.15    3.26
   1  -1   0  340.67    3.35
   1   1   0  278.17    3.07
  -1  -1   0  333.31    3.26
  -1   1   0  319.41    2.06
  -1   1  -1 7919.86   13.22
  -1   1  -1 7925.63   14.34
  -1  -1  -1 7946.43   13.46
   1  -1   1 7954.28    9.77
   1  -1   1 7949.10   14.06
   1  -1   1 7931.58   11.91
  -1   1  -1 7957.89   12.30
  -1  -1  -1 7934.39   13.87
  -1  -1  -2    6.22    2.10
   1   1   2    8.77    2.27
   1  -1   2   11.06    3.24
   1  -1   2    9.82    2.30
  -1  -1  -2    9.56    2.34
  -1  -1  -2    9.48    3.25
  -1   1  -2    8.82    2.46
   1  -1   2   12.00    2.05
   1  -1   3   30.63    3.59
  -1  -1  -3   28.45    3.05
   1  -1   3   23.49    4.08
  -1  -1  -3   21.93    3.30
   1   1   3   23.70    3.07
  -1  -1  -3   25.46    2.93
   1   1   3   21.44    2.68
  -1   1  -3   20.12    3.15
  -1   1  -4 2011.68   13.20
  -1   1  -4 1939.29   11.67
   1  -1   4 2027.35   11.86
  -1  -1  -4 2029.15   11.01
   1  -1   4 1954.57   13.15
  -1  -1  -4 1944.12   10.21
   1   1   4 2029.84   11.75
  -1  -1  -4 2129.39   12.23
   1   1   4 1936.97   10.77
   1   1   5  778.52    8.52
  -1  -1  -5  839.20    8.33
   1  -1   5  858.95    9.54
  -1   1  -5  811.50   10.36
  -1  -1  -5  889.46    8.14
  -1   1  -5  871.57    9.14
   1   1   5  896.93    9.46
   1  -1   5  860.94   10.50
   1  -1   6  427.67    9.31
  -1   1  -6  426.28    8.01
  -1  -1  -6  421.04    7.22
   1  -1   6  484.57    9.43
  -1  -1  -6  466.56    7.70
  -1  -1  -7   54.83    5.44
  -1  -1  -7   53.49    5.25
   1  -1   7   45.07    6.77
   1  -1   7   64.23    7.22
  -1   1  -7   40.26    6.20
   1   1   7   61.17    6.45
   1   1   8  704.89   12.81
   1  -1   8  680.98   12.06
   1  -1   8  816.82   13.28
  -1   1  -8  789.28   12.11
  -1  -1  -8  727.24   10.43
   1   3  -6  451.35   10.06
   1  -3  -6  453.63    9.89
   1   3  -5   19.98    5.73
  -1  -3   5   26.74    6.29
   1  -3  -5   33.80    6.56
  -1  -3   5   19.89    5.05
  -1  -3   4  113.59    4.93
  -1  -3   4   99.77    6.58
   1  -3  -4   90.24    6.19
   1   3  -4   95.54    5.90
  -1  -3   3 1429.55   11.20
   1  -3  -3 1446.56   12.66
   1   3  -2  399.76    7.57
   1  -3  -2  411.84    7.81
  -1   3   1    4.72    2.91
   1   3  -1    8.87    4.83
   1  -3  -1    6.67    5.00
  -1   3   1    1.37    1.76
  -1  -3   1    0.70    3.26
  -1   3   0  136.98    4.65
  -1  -3   0  131.09    3.93
   1  -3   0   80.52    1.27
   1  -3   0  136.82    5.51
  -1   3   0  103.70    1.81
  -1  -3   0  148.63    6.08
   1   3   0  136.43    4.40
  -1   3  -1 2492.32   12.50
   1   3   1 2532.47   12.74
  -1  -3  -1 2528.39    9.84
   1  -3   1 2365.30    9.26
  -1  -3  -1 2566.62   14.80
   1  -3   1 2434.03    9.47
   1  -3   1 2368.19   11.90
  -1  -3  -1 2627.09   11.10
  -1  -3  -2   27.96    3.00
   1   3   2   29.78    3.97
  -1  -3  -2   30.39    2.85
  -1   3  -2   22.68    4.30
  -1  -3  -2   33.97    6.35
   1  -3   2   30.72    4.11
   1  -3   2   26.52    2.62
   1  -3   2   24.10    3.66
  -1  -3  -3   11.43    2.92
   1  -3   3   11.76    3.50
  -1   3  -3   10.78    4.40
   1  -3   3   18.48    3.36
   1  -3   3   12.04    4.25
   1   3   3    9.62    3.53
  -1  -3  -3   11.37    5.33
  -1   3  -4  808.55   10.28
  -1  -3  -4  800.45    6.58
   1  -3   5  341.93    8.86
   1  -3   5  380.57    7.57
  -1   3  -5  349.34    8.60
   1   3   5  349.03    7.36
  -1  -3  -5  377.20    5.81
  -1  -3  -5  370.56    9.07
  -1  -3  -6  221.20    8.29
   1  -3   6  217.77    9.56
  -1  -3  -6  208.69    5.41
   1  -3   6  213.40    7.10
   1   3   6  203.36    7.41
   2   0  -8   30.34    6.92
   2   0  -8   17.33    5.46
  -2   0   8   24.94    6.30
   2   0  -7  100.08    7.51
   2   0  -7   92.34    5.57
  -2   0   7   87.65    6.43
   2   0  -6  889.34    9.26
  -2   0   6  866.12    9.89
   2   0  -5 1232.76    9.52
  -2   0   5 1197.13   10.00
   2   0  -5 1208.28   11.02
  -2   0   4   86.18    3.73
   2   0  -4  109.34    5.38
   2   0  -4   88.21    3.83
   2   0  -4  104.19    3.94
   2   0  -3    9.18    3.41
   2   0  -3   11.30    2.66
   2   0  -3   13.06    2.62
  -2   0   3    8.03    2.72
   2   0  -2 7193.44   14.28
  -2   0   2 7171.10   13.43
   2   0  -2 7145.73   14.82
   2   0  -2 7160.98   13.27
  -2   0   1   64.75    1.86
   2   0  -1   63.08    1.77
  -2   0   1   61.68    1.90
   2   0   0   91.48    1.85
   2   0   0  102.81    1.80
   2   0   0   94.85    1.56
  -2   0   0   95.15    1.57
  -2   0   0   98.88    1.62
  -2   0   0   99.72    1.80
   2   0   0  104.74    1.76
   2   0   1 1620.83    6.05
   2   0   1 1584.06    6.39
   2   0   1 1594.41    6.36
  -2   0  -1 1578.13    6.27
  -2   0  -1 1574.97    6.71
  -2   0  -1 1566.24    6.28
  -2   0  -1 1574.52    6.15
   2   0   1 1543.16    6.91
   2   0   2 3275.37   10.79
   2   0   2 3168.46   11.96
  -2   0  -2 3211.30   10.82
   2   0   2 3283.71    9.97
  -2   0  -2 3281.40   10.53
  -2   0  -2 3195.74   11.75
   2   0   2 3334.15   11.71
   2   0   3 1068.76    8.46
  -2   0  -3 1061.36    7.97
  -2   0  -3 1085.63    5.44
  -2   0  -3 1073.92    8.71
   2   0   3 1030.77    8.90
   2   0   3 1017.56    8.03
   2   0   4   29.92    4.52
  -2   0  -4   24.35    3.68
   2   0   4   25.32    4.79
  -2   0  -4   24.67    2.57
   2   0   4   33.90    5.12
  -2   0  -4   23.45    4.87
  -2   0  -5 1520.37   14.05
   2   0   5 1553.44   12.52
  -2   0  -5 1535.29   11.27
  -2   0  -6    4.53    3.49
  -2   0  -6    3.31    5.22
   2   0   6    5.66    5.14
  -2   0  -6    2.03    6.30
   2   0   6    1.87    6.61
   2   0   7  279.06    8.21
   2   0   7  272.41    8.87
  -2   0  -7  272.08    7.71
  -2   0  -8   43.92    6.49
   2   0   8   43.54    7.68
   2   0   8   38.18    7.28
  -2  -2   7   73.00    6.77
   2   2  -7   46.86    6.24
   2  -2  -7   64.03    6.78
   2  -2  -7   61.73    4.02
  -2  -2   7   47.70    6.82
   2  -2  -6  516.57    5.75
   2   2  -6  513.28    9.07
  -2  -2   6  524.00   10.27
   2  -2  -5  788.35    7.02
   2  -2  -5  808.23    9.73
   2   2  -5  790.13    9.55
  -2  -2   5  815.32   10.61
   2  -2  -4   35.75    1.56
   2  -2  -4   26.77    1.59
   2  -2  -4   44.19    5.11
  -2  -2   4   42.73    5.60
   2   2  -4   44.13    4.78
  -2   2   4   34.22    2.93
  -2  -2   3   12.41    4.56
   2  -2  -3   13.76    4.86
   2   2  -3   10.62    3.95
  -2   2   3    6.78    2.27
  -2  -2   2 4008.42   14.48
   2   2  -2 4038.40   15.75
   2  -2  -2 4035.64   15.68
  -2   2   1   11.77    1.62
  -2  -2   1    9.89    3.04
  -2  -2   1    9.99    2.52
   2   2  -1   16.17    3.76
   2  -2  -1   11.88    3.58
  -2   2   1   11.38    2.10
  -2   2   0   38.42    2.04
  -2  -2   0   35.39    3.23
   2   2   0   33.57    3.24
   2  -2   0   44.72    2.44
  -2  -2   0   36.28    2.52
  -2   2   0   46.63    2.18
   2  -2   0   46.60    3.30
   2  -2   1  844.41    5.82
  -2  -2  -1  846.93    6.63
   2  -2   1  858.89    5.59
   2  -2   1  799.95    4.67
  -2   2  -1  852.91    6.04
   2   2   1  811.65    4.24
   2  -2   1  811.16    4.46
  -2  -2  -1  851.72    7.03
  -2   2  -1  909.75    5.57
   2   2   1  866.77    7.42
   2  -2   2 1939.56    7.39
   2  -2   2 2009.00    8.92
  -2   2  -2 1877.47    9.97
   2   2   2 2091.07   11.21
  -2  -2  -2 1927.67   10.40
   2   2   2 1871.15    8.58
   2  -2   2 1822.30    9.97
  -2  -2  -2 1966.81    9.70
   2   2   3  577.91    7.59
  -2  -2  -3  568.20    6.51
   2  -2   3  623.60    6.35
  -2   2  -3  571.70    7.03
   2   2   3  557.56    6.39
   2  -2   3  533.68    7.93
  -2  -2  -3  577.32    5.88
   2  -2   3  577.47    5.98
  -2  -2  -3  599.39    7.90
   2   2   4   22.51    5.46
  -2  -2  -4   19.30    5.09
   2   2   4   20.32    4.67
   2  -2   4   22.92    5.92
   2  -2   4   26.34    4.26
  -2  -2  -4   23.11    4.14
  -2   2  -4   22.22    4.60
   2   2   5 1088.64   10.87
   2  -2   5 1038.10   12.37
   2  -2   5 1048.18   10.43
  -2  -2  -5  970.86   10.77
  -2   2  -5 1087.56   11.28
   2  -2   5 1056.29   12.78
   2   2   5  970.15   10.50
  -2  -2  -5 1064.26    9.26
  -2  -2  -6    0.30    5.66
  -2   2  -6    6.11    5.60
  -2  -2  -6    4.91    4.26
   2  -2   6   11.56    6.76
   2   2   6    4.92    5.78
   2  -2   6    9.00    5.40
   2  -2   6    0.13    6.82
  -2  -2  -7  204.07    6.78
   2  -2   7  157.56    8.79
   2  -2   7  177.22    7.55
  -2  -2  -7  184.46    7.94
   2   2   7  217.84    8.86
  -2   2  -7  193.52    8.38
   2  -2   7  154.13    9.09
   2  -4  -4   37.62    7.09
  -2  -4   4   13.73    6.03
  -2  -4   3    9.40    4.76
   2  -4  -3    4.06    6.46
  -2  -4   3    3.70    5.91
  -2  -4   2 1255.96   11.01
  -2  -4   2 1230.91   12.68
  -2  -4   1    3.57    5.87
   2  -4  -1    6.34    5.88
  -2  -4   1    3.30    4.74
  -2  -4   0    3.13    3.52
   2  -4   0    6.35    5.69
  -2  -4   0   -1.13    5.83
  -2  -4  -1  197.50    7.57
  -2  -4  -1  224.18    4.55
  -2  -4  -2  571.56    5.56
  -2  -4  -2  496.40    9.46
   2  -4   3  131.87    4.23
  -2  -4  -3  157.16    7.36
  -2  -4  -4    2.29    6.70
   2  -4   4    5.82    4.90
  -2  -4  -4    5.16    2.98
  -3  -1   8  914.02   13.01
   3  -1  -8  888.39    9.83
   3   1  -7    0.48    5.20
   3  -1  -7    8.20    4.24
  -3  -1   7    0.48    5.38
  -3  -1   7    7.69    5.50
   3  -1  -7    4.77    5.85
   3   1  -6   80.17    6.10
  -3   1   6   65.29    4.67
   3  -1  -6   73.25    5.40
   3   1  -6   72.47    5.32
   3  -1  -6   72.17    4.18
  -3  -1   6   81.72    5.65
  -3  -1   6   77.61    5.51
   3  -1  -5 3298.61   15.59
   3  -1  -5 3292.10   12.45
  -3  -1   5 3307.46   17.58
   3  -1  -4  407.77    4.51
   3   1  -4  415.25    6.38
  -3  -1   4  404.85    6.65
   3  -1  -4  371.65    6.65
  -3   1   4  372.76    5.12
   3  -1  -3    4.51    1.76
   3  -1  -3   -0.42    3.68
  -3   1   3    3.45    1.90
   3  -1  -3    0.83    1.68
   3   1  -3    7.55    3.07
  -3  -1   3    3.10    3.64
   3   1  -2 1981.73    9.84
   3  -1  -2 2004.76    9.81
  -3  -1   1 4935.60   13.49
  -3  -1   1 4985.84   13.72
   3   1  -1 4930.99   13.98
  -3  -1   1 4930.25   10.48
  -3   1   1 5014.55   12.75
   3  -1  -1 4905.93   13.88
  -3   1   0   31.36    1.44
   3  -1   0   27.73    2.55
  -3  -1   0   28.00    2.70
   3   1   0   20.10    2.96
  -3  -1   0   23.66    2.35
  -3   1   0   31.50    1.36
  -3  -1   0   27.78    1.82
   3  -1   0   31.11    3.05
   3   1   0   21.56    1.86
  -3   1   0   30.52    2.24
  -3   1  -1 1762.23    7.89
  -3   1  -1 1748.69    6.09
  -3  -1  -1 1713.60    8.49
   3   1   1 1699.20    7.24
  -3  -1  -1 1716.12    8.50
  -3   1  -1 1751.16    6.96
  -3  -1  -1 1705.28    7.22
   3  -1   1 1774.83    7.99
   3  -1   1 1758.96    7.60
   3   1   1 1699.66    8.79
   3   1   2 1588.03    8.95
  -3   1  -2 1550.49    4.41
   3   1   2 1582.61    8.19
  -3  -1  -2 1661.71    9.49
  -3   1  -2 1573.29    9.09
  -3   1  -2 1572.61    8.57
   3  -1   2 1637.85    8.77
   3  -1   2 1523.10    9.59
   3  -1   2 1529.53    7.35
  -3  -1  -2 1544.69    8.64
   3   1   3 1506.28   10.03
   3   1   3 1598.07   10.65
   3  -1   3 1610.82   10.07
   3   1   3 1502.43    9.57
  -3   1  -3 1492.54    9.38
  -3   1  -3 1345.31    9.79
   3  -1   3 1648.35    9.16
  -3  -1  -3 1488.48    9.65
   3  -1   3 1505.59   10.95
   3   1   4 2059.14   12.50
  -3   1  -4 1947.10   13.53
   3   1   4 2072.17   12.82
   3   1   4 1981.46   12.79
   3  -1   4 1976.97   12.45
  -3   1  -4 1981.08   12.33
  -3  -1  -4 1962.22   11.44
   3  -1   4 2069.83   14.09
  -3  -1  -4 1943.65   11.74
   3   1   5   61.53    5.54
  -3   1  -5   52.79    5.18
   3  -1   5   47.44    5.56
   3   1   5   60.27    6.22
  -3  -1  -5   44.00    3.96
  -3  -1  -5   52.66    4.92
   3  -1   5   53.73    6.20
   3   1   6 1053.41   12.34
  -3  -1  -6 1003.49    9.90
   3  -1   6 1059.77   12.00
   3   1   6 1193.87   13.01
  -3  -1  -6 1123.15   11.36
  -3   1  -6 1137.20   12.46
   3  -1   6 1126.14   13.29
  -3   1  -7  175.69    7.63
  -3  -1  -7  171.51    6.20
   3   1   7  191.35    8.51
   3  -1   7  172.39    7.78
  -3  -1  -7  167.23    7.00
   3  -1   7  156.92    8.44
  -3  -3   6   47.60    7.13
   3   3  -6   49.90    6.57
   3  -3  -6   48.64    7.08
   3  -3  -5 1490.34   14.67
  -3  -3   5 1490.78   15.40
   3  -3  -4  201.61    7.38
   3   3  -4  194.69    7.18
   3   3  -3    2.38    5.50
  -3  -3   3    7.00    5.18
   3  -3  -3    9.40    5.61
   3  -3  -2  497.40    8.39
   3   3  -2  495.57    8.38
  -3  -3   1 1890.27   11.45
   3   3  -1 1884.44   12.84
  -3  -3   0   35.33    5.20
   3  -3   0   31.16    4.80
   3   3   0   24.37    4.33
  -3  -3  -1  370.19    6.32
   3   3   1  353.95    6.53
   3  -3   1  406.71    6.66
   3  -3   1  413.18    5.93
   3   3   2  637.59    8.74
   3  -3   2  509.24    4.81
   3  -3   2  725.02    7.14
  -3  -3  -2  603.80    9.82
   3  -3   2  663.50    6.74
  -3  -3  -2  655.93    7.35
   3   3   2  501.86    4.98
   3   3   3  633.65    8.76
  -3  -3  -3  628.65    7.48
   3  -3   3  512.22    6.95
   3   3   3  539.35    6.30
   3  -3   3  657.69    7.54
  -3  -3  -3  540.88    9.22
  -3  -3  -4  755.80   11.45
   3  -3   4  858.87    9.27
   3   3   4  740.74    8.22
  -3  -3  -4  871.29    8.74
   3  -3   4  774.33    9.45
   3   3   5   15.55    4.91
   3  -3   5   15.98    5.27
   3  -3   5   14.54    6.81
  -3  -3  -5   15.74    4.53
  -3  -3  -5   15.47    5.44
   3  -3   6  562.09   10.05
   3   3   6  514.64    9.47
   3  -3   6  507.28   12.19
  -3  -3  -6  558.28    8.11
  -3  -3  -6  503.79   11.00
   4   0  -8  234.67    7.28
   4   0  -8  271.78    8.09
  -4   0   7 1133.90   12.42
   4   0  -7 1054.20   10.73
   4   0  -6   -3.56    4.58
   4   0  -6    1.90    5.48
  -4   0   6    0.83    4.33
   4   0  -5   43.06    4.13
   4   0  -5   30.78    4.00
   4   0  -5   45.46    5.47
  -4   0   5   35.66    4.17
   4   0  -4 5459.61   16.45
  -4   0   4 5494.09   17.93
  -4   0   4 5482.91   17.85
   4   0  -4 5446.52   18.36
   4   0  -3  207.43    4.14
  -4   0   3  200.01    4.02
  -4   0   2   12.76    2.35
   4   0  -2   15.14    2.54
   4   0  -2   12.94    2.34
  -4   0   1 2625.08    8.22
  -4   0   1 2645.04    9.25
   4   0  -1 2659.17    8.04
   4   0  -1 2631.03    9.91
   4   0   0 6959.02   14.00
  -4   0   0 7028.74   13.77
   4   0   0 7020.98   13.11
   4   0   0 6997.88   14.49
  -4   0   0 6959.70   15.01
   4   0   0 6973.01   15.32
  -4   0  -1  802.68    5.95
   4   0   1  797.85    6.08
  -4   0  -1  790.64    6.04
   4   0   1  779.58    6.02
   4   0   2  388.04    5.22
  -4   0  -2  403.84    5.40
   4   0   2  390.66    5.19
   4   0   2  404.52    6.22
   4   0   3 3498.16   15.55
   4   0   3 3469.85   14.99
   4   0   4  141.45    7.18
   4   0   4  134.26    5.72
  -4   0  -4  132.09    3.96
  -4   0  -4  129.59    5.08
   4   0   4  142.40    5.98
   4   0   5  904.84   10.64
  -4   0  -5  877.59    6.78
   4   0   5 1103.97   14.70
  -4   0  -5  972.36   10.36
   4   0   5 1081.84   12.31
  -4   0  -6  244.72    7.36
   4   0   6  250.73    8.40
   4   0   7  459.72    9.99
  -4   0  -7  475.28    9.65
   4   0   7  467.71   10.32
   4   2  -7  669.10   10.04
  -4  -2   7  670.37   11.52
   4  -2  -6   10.14    6.30
   4   2  -6    4.25    4.90
  -4  -2   6   -3.66    6.18
   4  -2  -5   22.23    5.79
   4   2  -5   19.51    5.13
  -4  -2   5   21.16    5.23
  -4   2   4 3437.65   12.89
   4   2  -4 3396.25   17.51
   4  -2  -4 3429.25   17.52
  -4   2   3   99.88    2.24
   4   2  -3  113.93    5.77
  -4  -2   3   92.92    5.28
   4  -2  -3  108.02    5.99
   4   2  -2   15.52    4.31
   4  -2  -2   12.63    4.79
  -4  -2   2   19.66    4.37
  -4  -2   2   14.71    2.22
  -4  -2   1 1248.38    9.02
   4   2  -1 1247.83    9.79
   4  -2  -1 1269.23    9.18
  -4  -2   0 3501.40   14.43
   4   2   0 3450.30   14.86
  -4  -2   0 3526.58    8.90
  -4   2   0 3470.79    8.90
   4   2   0 3423.16    8.92
   4  -2   0 3510.82   13.10
   4  -2   0 3530.42   13.72
  -4  -2  -1  468.47    6.33
   4   2   1  517.92    7.10
   4  -2   1  444.59    5.36
   4  -2   1  492.44    5.69
  -4   2  -1  432.31    4.52
   4   2   1  485.80    4.46
  -4  -2  -2  225.37    5.46
   4   2   2  223.69    5.61
   4   2   2  206.60    4.21
   4  -2   2  209.54    4.70
   4  -2   2  208.98    4.63
   4   2   3 2022.10   13.09
   4  -2   3 1923.32   11.63
   4   2   3 1957.32   11.37
  -4   2  -3 1949.87   12.34
   4  -2   3 1948.50   13.85
   4  -2   3 1935.26   13.41
  -4  -2  -3 2034.25   12.37
   4  -2   4   81.69    5.10
   4   2   4   80.54    5.15
  -4   2  -4   74.83    5.51
  -4  -2  -4   90.38    6.29
   4  -2   4   86.83    6.97
  -4  -2  -4   71.06    5.09
   4  -2   4   84.86    6.99
   4   2   5  644.73    9.73
  -4  -2  -5  604.29    9.93
   4  -2   5  612.36    8.92
  -4   2  -5  596.49    9.78
  -4  -2  -5  631.88    8.65
   4  -2   5  608.81   11.71
   4   2   6  148.38    7.25
   4   2   6  114.19    6.81
   4  -2   6  122.39    6.41
  -4   2  -6  129.87    7.19
  -4  -2  -6  134.69    6.42
   4  -2   6  129.81    8.76
  -4  -2  -6  108.87    6.87
   4  -4  -4 1019.81   13.55
  -4  -4   4 1060.98   12.96
   4  -4  -3   22.67    7.19
  -4  -4   3   14.12    5.42
  -4  -4   2   11.10    5.56
   4  -4  -2    0.04    6.43
   4  -4  -1  309.59    8.63
  -4  -4   1  329.04    7.51
  -4  -4   0  978.44    9.66
   4  -4   0  904.78   11.35
  -4  -4  -1  185.85    5.68
  -4  -4  -1  171.93    8.08
  -4  -4  -2   36.01    7.10
  -4  -4  -2   39.42    4.70
  -4  -4  -3  488.80   10.29
  -4  -4  -3  556.49    7.44
   5  -1  -8   57.69    4.96
   5   1  -8   48.64    6.24
  -5  -1   8   62.89    6.49
   5   1  -7  825.50   10.70
  -5  -1   7  807.40   11.26
   5  -1  -6  281.35    5.37
   5   1  -6  275.76    7.10
  -5  -1   6  290.05    7.33
   5  -1  -5    9.83    5.66
   5  -1  -5   11.88    3.09
   5   1  -5    7.78    4.88
  -5  -1   5   13.23    4.74
   5  -1  -5    8.70    5.91
  -5   1   5   11.31    3.34
   5  -1  -4   80.83    3.25
   5  -1  -4   85.69    2.50
  -5  -1   4   94.93    5.23
   5   1  -4  109.27    5.52
  -5   1   4  104.61    3.43
   5  -1  -3 3247.55   16.00
  -5   1   3 3278.24   10.44
   5   1  -2   20.75    3.62
  -5  -1   2   14.27    3.10
  -5   1   2   21.21    1.68
   5   1  -1  123.20    3.97
  -5  -1   1  127.72    3.03
  -5   1   1  138.29    2.04
  -5  -1   1  129.59    3.76
   5   1  -1  131.66    3.44
  -5  -1   0 1456.54    7.73
  -5   1   0 1419.24    6.23
  -5  -1   0 1372.61    8.46
   5   1   0 1451.28    9.37
   5  -1   0 1371.55    4.32
   5   1   0 1332.72    7.29
   5  -1   0 1424.10    8.80
   5  -1   0 1376.72    5.28
  -5  -1  -1 2046.29   10.85
   5   1   1 2018.86   11.03
   5   1   1 2038.12    9.60
   5  -1   1 2027.63    9.65
  -5   1  -1 2032.27    9.11
  -5  -1  -2 1065.28    8.86
   5  -1   2 1092.92    6.84
   5   1   2 1105.96    9.58
   5   1   2 1112.63    9.21
   5   1   2 1178.11    8.55
   5  -1   2 1119.11    8.74
  -5   1  -2 1004.94    7.56
   5  -1   2 1115.09    9.08
   5  -1   3   91.32    3.52
   5   1   3   98.74    5.08
   5   1   3   84.90    5.30
  -5   1  -3   72.00    3.26
   5   1   3   77.92    4.61
   5  -1   3   86.43    4.85
  -5   1  -3   85.59    4.42
  -5  -1  -3   80.28    4.97
   5  -1   3   75.61    5.46
   5   1   4 1444.84   11.96
   5   1   4 1505.14   13.09
   5   1   4 1493.18   12.06
   5  -1   4 1451.31   11.65
  -5   1  -4 1495.01   12.00
  -5  -1  -4 1439.42   11.45
   5  -1   4 1443.38   12.91
  -5   1  -5    8.98    4.95
  -5  -1  -5    3.20    4.92
  -5  -1  -5   18.15    4.81
   5   1   5    9.52    5.67
   5  -1   5    9.63    5.24
   5  -1   5   21.77    6.11
   5   1   5   11.02    5.38
   5   1   6  456.28    9.31
   5   1   6  379.24    9.20
   5  -1   6  371.30    8.49
  -5   1  -6  412.05    8.82
  -5  -1  -6  412.68    8.73
   5  -1   6  426.95   10.11
  -5  -1  -6  325.59    6.44
   5   1   7   50.40    7.64
   5   1   7   40.49    7.48
   5  -1   7   36.54    6.46
  -5   1  -7   46.63    7.18
  -5  -1  -7   41.35    6.57
   5  -1   7   37.91    7.63
   5   3  -6  146.10    8.41
  -5  -3   6  155.88    8.17
   5  -3  -6  159.16    8.68
   5   3  -5   11.39    6.49
   5  -3  -5    8.74    7.15
  -5  -3   5   10.38    6.17
   5   3  -4   38.79    6.49
  -5  -3   4   55.08    6.79
   5  -3  -4   46.33    6.67
   5   3  -3 1483.73   13.74
   5  -3  -3 1463.27   13.73
   5   3  -2   21.27    5.36
  -5  -3   2   15.36    4.99
   5  -3  -2   19.74    5.81
  -5  -3   1   74.76    5.81
   5   3  -1   67.70    5.63
   5  -3  -1   81.69    5.84
   5   3   0  648.08    9.39
   5  -3   0  630.70    8.67
  -5  -3  -1  745.75    8.85
   5   3   1  833.55   10.48
   5  -3   1  775.83    8.52
   5  -3   1  829.82    8.67
  -5  -3  -2  538.24    8.19
   5   3   2  539.85    8.74
   5  -3   2  545.82    7.21
   5   3   3   32.13    5.61
   5  -3   3   41.90    4.63
   5   3   3   33.60    3.89
  -5  -3  -3   42.77    5.02
   5   3   4  579.45    8.11
  -5  -3  -4  551.53   10.35
   5  -3   4  714.32    9.49
   5  -3   4  606.23    9.25
  -5  -3  -4  672.31    8.75
  -5  -3  -5    6.87    6.92
   5  -3   5    6.27    7.39
  -5  -3  -5   17.45    5.17
   5   3   5    6.13    4.88
   5  -3   5    8.09    5.29
   6   0  -8   15.96    5.51
   6   0  -7   12.43    5.15
   6   0  -7   17.86    5.43
   6   0  -6 1575.63   12.32
  -6   0   6 1532.83   12.80
   6   0  -5  132.42    5.27
  -6   0   5  119.24    4.85
   6   0  -4  625.80    6.91
  -6   0   4  603.78    7.02
   6   0  -4  608.50    6.66
   6   0  -3  340.99    5.14
   6   0  -3  346.16    4.91
   6   0  -3  349.97    5.14
  -6   0   2 4287.68   13.35
   6   0  -2 4292.85   13.16
   6   0  -1 2475.40    9.78
  -6   0   1 2469.73    9.98
   6   0  -1 2477.80    9.23
   6   0  -1 2486.66   11.76
   6   0   0   48.93    3.24
  -6   0   0   45.05    3.17
   6   0   0   51.35    2.75
   6   0   0   38.22    3.49
   6   0   0   46.22    3.66
  -6   0  -1 3096.46   12.64
   6   0   1 3123.11   12.99
   6   0   1 3061.21   11.62
   6   0   1 3120.47   14.48
   6   0   1 3058.42   13.48
  -6   0  -2    4.26    3.69
   6   0   2    1.95    4.94
   6   0   2    1.50    3.96
   6   0   2    6.99    4.01
   6   0   3 1014.65    9.91
  -6   0  -3  979.27    9.28
   6   0   4  188.39    6.53
   6   0   4  227.57    8.46
   6   0   4  212.89    6.72
  -6   0  -4  201.16    6.18
   6   0   5  398.42    9.49
  -6   0  -5  321.02    5.55
   6   0   5  411.68   12.19
   6   0   5  333.30    8.01
  -6   0  -5  342.35    8.00
   6   0   6  170.36    7.44
  -6   0  -6  175.79    7.58
   6   0   7  207.37    8.57
   6   0   7  211.28    9.47
   6   2  -7   18.29    6.63
  -6  -2   7   10.38    5.19
   6  -2  -7    2.80    7.18
   6   2  -6 1167.45   13.44
   6  -2  -6 1191.27   14.03
   6   2  -5  101.24    7.01
  -6  -2   5   78.55    6.41
   6  -2  -5   84.43    6.83
   6   2  -4  340.08    7.63
  -6  -2   4  344.43    8.17
   6  -2  -4  327.93    8.45
   6   2  -3  208.95    6.58
   6  -2  -3  217.89    7.26
  -6  -2   2 2567.11   14.30
   6  -2  -2 2579.56   15.24
  -6   2   1 1330.36    5.47
   6   2  -1 1354.71   11.07
  -6  -2   1 1355.83   10.53
   6  -2  -1 1382.34   11.58
   6  -2  -1 1386.36   10.92
  -6  -2   0   44.33    5.24
   6   2   0   36.92    4.68
   6   2   0   38.21    3.09
   6  -2   0   48.13    4.18
  -6   2   0   50.16    2.56
   6   2   1 1788.62   12.57
   6   2   1 1821.06    9.79
   6  -2   1 1801.39   11.29
  -6   2  -1 1793.60    9.58
   6   2   2    1.02    4.59
  -6   2  -2    7.12    3.88
  -6  -2  -2    5.77    4.89
   6  -2   2    4.77    2.79
   6  -2   2    2.40    3.83
   6   2   2    1.80    3.60
   6  -2   2    2.15    4.00
   6  -2   3  654.89    8.44
   6  -2   3  634.80    9.95
  -6  -2  -3  656.46    9.03
   6   2   4  135.73    5.73
   6  -2   4  107.85    5.61
  -6   2  -4  123.33    5.91
   6  -2   4   99.23    8.03
  -6  -2  -4  124.45    6.26
   6  -2   5  220.79    7.03
   6   2   5  233.11    7.14
  -6  -2  -5  216.23    7.86
   6  -2   5  236.92   10.04
   6   2   6  162.13    8.13
  -6  -2  -6  115.90    7.07
   6   2   6  115.65    6.94
   6  -2   6  110.29    6.88
  -6  -2  -6  161.83    7.90
   6  -2   6  147.57   10.13
  -6  -4   3   58.36    6.51
   6  -4  -3   68.38    8.38
  -6  -4   2  830.43   11.19
   6  -4  -2  873.40   13.33
  -6  -4   1  552.16   10.79
   6  -4  -1  414.24    9.56
   6  -4   0    7.57    6.24
  -6  -4   0    2.39    4.93
  -6  -4  -1  584.51    9.32
  -6  -4  -2   -3.04    5.02
   7  -1  -8  187.22    5.50
   7   1  -8  173.31    6.39
   7  -1  -7    6.88    3.64
   7   1  -7    8.93    6.63
   7   1  -7   14.02    4.50
  -7  -1   7    9.65    5.71
   7  -1  -6  147.33    3.74
   7   1  -6  176.76    7.10
   7   1  -6  130.35    5.53
  -7  -1   6  191.17    7.03
   7   1  -5 1681.95   11.57
  -7  -1   5 1772.14   12.34
   7   1  -4    4.62    4.48
  -7  -1   4    5.85    4.71
  -7   1   4   -1.77    2.81
  -7  -1   3  566.31    7.37
  -7   1   3  508.15    4.47
   7   1  -2 1205.12    9.89
  -7   1   2 1260.92    6.96
   7   1  -1 2056.71   11.88
  -7   1   1 2162.61    8.92
  -7  -1   1 2112.20   11.73
   7   1  -1 2065.65   11.18
   7  -1  -1 2164.15   12.94
   7  -1  -1 2130.29    4.82
   7  -1  -1 2076.84    5.39
  -7   1   0 2195.12    9.70
  -7  -1   0 2217.86   12.35
   7  -1   0 2202.14    7.45
   7  -1   0 2232.29   13.10
   7  -1   0 2210.59   10.59
  -7  -1  -1  316.86    6.02
   7   1   1  321.17    6.35
   7   1   1  361.76    6.85
   7   1   1  341.57    5.94
   7  -1   1  359.49    6.39
   7  -1   1  361.53    6.46
  -7   1  -1  347.84    5.31
  -7  -1  -2 1749.31   12.39
   7   1   2 1789.64   13.02
   7  -1   2 1844.09    9.99
   7   1   2 1910.63   13.40
   7   1   2 1749.41   11.65
   7  -1   2 1801.71   12.40
  -7   1  -2 1795.94   11.69
   7  -1   2 1843.20   13.06
   7   1   3   66.23    5.69
   7   1   3   66.83    5.95
   7   1   3   68.16    5.23
   7  -1   3   61.53    5.31
  -7   1  -3   62.43    4.96
  -7  -1  -3   59.54    5.42
   7  -1   3   75.61    6.65
   7   1   4 1204.79   12.28
  -7   1  -4 1171.96   11.71
  -7  -1  -4 1213.55   12.19
   7  -1   4 1176.67   12.99
   7   1   5   67.94    6.53
   7   1   5   63.30    6.50
   7  -1   5   53.65    6.16
  -7   1  -5   50.69    6.16
  -7  -1  -5   64.86    6.22
   7  -1   5   51.62    6.57
   7   1   6  220.12    8.52
   7   1   6  232.62    8.51
   7  -1   6  214.66    8.20
  -7   1  -6  211.52    8.82
  -7  -1  -6  244.59    8.47
   7  -1   6  252.20    9.42
  -7  -3   5 1116.24   14.81
   7  -3  -5 1062.24   14.29
   7  -3  -4    8.58    6.81
   7   3  -4    5.49    5.74
  -7  -3   4   -0.20    7.17
   7   3  -3  246.83    8.32
  -7  -3   3  253.32    8.05
   7  -3  -3  262.04    8.58
  -7  -3   2  494.63    9.03
   7   3  -2  482.97    9.25
   7  -3  -2  491.97    9.65
  -7  -3   1  898.11   10.78
   7   3  -1  926.71   11.46
   7  -3  -1  898.02   11.47
  -7  -3   0 1011.52   12.01
   7  -3   0 1031.32   10.75
  -7  -3  -1  109.02    6.12
   7   3   1  105.90    6.54
   7  -3   1  118.59    5.64
   7   3   2  811.33   11.36
   7  -3   2  821.20    9.83
   7   3   3   24.31    6.34
   7  -3   3   12.64    2.54
   7  -3   3   27.63    4.90
  -7  -3  -3   35.70    5.91
   7   3   4  615.30   11.40
  -7  -3  -4  584.71   10.07
   8   0  -7  128.57    5.85
   8   0  -6   79.85    4.93
   8   0  -6   44.48    2.03
   8   0  -5  179.01    5.39
  -8   0   5  163.95    5.15
   8   0  -4 2461.88   12.36
  -8   0   4 2508.53   13.47
   8   0  -3  377.68    5.57
  -8   0   3  380.23    5.66
   8   0  -2  158.15    4.39
  -8   0   2  158.63    4.37
   8   0  -2  153.23    4.16
   8   0  -2  143.61    3.73
   8   0  -2  137.20    5.60
   8   0  -1 2026.08   10.63
  -8   0   1 2052.25   10.99
   8   0  -1 2070.02   10.31
   8   0  -1 2014.17    9.84
   8   0  -1 2039.36   12.87
   8   0   0  546.99    6.94
  -8   0   0  626.79    8.00
   8   0   0  556.69    7.68
   8   0   0  574.52    6.27
   8   0   0  498.13    7.46
  -8   0  -1 1440.18   10.35
   8   0   1 1387.40   10.36
   8   0   1 1425.94    9.23
   8   0   1 1421.79   11.61
   8   0   1 1372.76   10.85
  -8   0  -2  227.93    5.89
   8   0   2  220.91    6.02
   8   0   2  238.64    7.62
   8   0   2  249.29    6.43
   8   0   3 1083.91   11.22
   8   0   3 1144.63   13.59
   8   0   3 1081.81   11.00
  -8   0  -3 1131.73   10.94
   8   0   4  224.67    7.26
   8   0   4  256.35    9.64
   8   0   4  208.62    7.32
  -8   0  -4  237.34    6.65
   8   0   5  561.36   11.03
  -8   0  -5  521.28    9.77
   8   0   6   38.09    7.15
  -8   0  -6   49.86    7.14
   8   0   6   63.48    7.55
   8   2  -7   70.74    6.02
  -8  -2   7   92.90    7.79
   8   2  -6   62.62    6.58
  -8  -2   6   76.48    7.05
   8   2  -5   93.30    6.22
  -8  -2   5  121.51    6.70
   8   2  -4 1713.55   14.69
  -8  -2   4 1841.44   15.84
   8   2  -3  267.24    7.46
  -8  -2   3  282.03    7.73
   8   2  -2  107.46    6.21
  -8  -2   2  108.45    5.86
   8   2  -1 1245.62   12.01
   8  -2  -1 1271.81   11.75
   8   2  -1 1261.47   10.10
  -8  -2   0  337.44    8.05
   8   2   0  301.92    7.39
   8   2   0  321.98    5.86
   8  -2   0  290.97    6.94
  -8  -2  -1  925.14   10.18
   8   2   1  946.96   10.92
   8   2   1  955.08    8.71
  -8  -2  -2  134.28    6.57
   8   2   2  148.70    6.73
   8   2   2  138.00    5.51
   8  -2   2  131.21    5.75
   8  -2   2  130.42    5.39
   8  -2   2  142.87    5.52
   8   2   3  758.26   10.90
   8   2   3  721.44    9.33
   8  -2   3  719.41    9.69
   8  -2   3  721.43   11.41
  -8  -2  -3  762.11   10.48
   8   2   4  158.50    6.58
   8  -2   4  158.55    6.74
  -8  -2  -4  171.95    7.37
   8   2   5  339.33    9.46
   8   2   5  317.95    8.64
  -8  -2  -5  338.90    9.03
   9  -1  -7  494.48    4.87
   9   1  -7  554.52    7.63
   9   1  -6   23.59    5.65
   9   1  -6   19.89    4.26
  -9  -1   6   29.74    5.87
   9   1  -5  105.52    6.19
  -9  -1   5  101.76    6.09
   9   1  -4  521.06    8.16
  -9  -1   4  541.40    8.69
   9   1  -3  702.08    9.19
  -9  -1   3  795.99   10.03
  -9  -1   2  634.61    8.23
   9  -1  -2  670.60    9.88
   9   1  -1  298.64    6.57
   9   1  -1  283.31    6.47
   9  -1  -1  302.21    7.46
   9  -1  -1  291.53    3.09
  -9   1   0  623.66    6.94
  -9  -1   0  661.92    9.27
   9   1   0  579.17    8.16
   9   1   0  622.00    8.68
   9  -1   0  599.93    5.03
   9   1   0  660.93    8.77
   9  -1   0  638.28    9.34
   9  -1   0  577.00    7.82
  -9   1  -1   26.98    3.94
   9   1   1   31.13    5.10
  -9  -1  -1   23.85    4.90
   9   1   1   40.13    5.34
   9   1   1   34.04    4.91
   9  -1   1   36.19    5.17
   9  -1   1   34.46    5.88
  -9  -1  -2 1434.66   12.66
   9   1   2 1382.62   12.30
   9   1   2 1419.76   13.28
   9   1   2 1462.18   12.60
   9  -1   2 1412.16   12.65
  -9   1  -2 1392.80   11.74
   9  -1   2 1489.48   13.34
  -9   1  -3    4.70    4.51
  -9  -1  -3   17.81    5.61
   9   1   3    8.04    5.39
   9  -1   3    9.59    5.31
   9  -1   3   17.55    6.70
   9   1   3    2.88    5.41
   9   1   4  500.22    9.39
   9   1   4  494.05    9.50
   9  -1   4  518.26    9.51
  -9  -1  -4  539.78    9.87
   9  -1   4  533.27   10.92
   9   1   5  591.50   11.08
   9   1   5  552.64   10.52
   9  -1   5  502.31    9.95
  -9  -1  -5  537.54   10.54
   9  -1   5  585.34   11.57
   9   3  -4  235.09    8.65
  -9  -3   4  239.34    8.91
   9   3  -3  322.39    8.64
  -9  -3   3  346.82    9.14
  -9  -3   2  382.74    9.95
   9   3  -2  349.64    9.42
  -9  -3   1  129.09    7.75
   9   3  -1  103.68    6.76
  -9  -3   0  308.66    8.74
   9   3   0  308.31    8.64
   9  -3   0  295.38    7.75
   9   3   1   14.66    6.07
  -9  -3  -1   11.17    5.97
   9  -3   1   13.36    4.87
  -9  -3  -2  735.76   11.46
   9   3   2  712.33   11.93
  10   0  -7   53.74    4.75
  10   0  -6 1079.88    9.91
  10   0  -5  354.17    6.44
  10   0  -4  194.19    5.44
  10   0  -3  966.15    8.51
 -10   0   3 1081.25   10.14
  10   0  -2  131.58    4.79
 -10   0   2  137.87    4.94
  10   0  -2  115.17    3.03
  10   0  -2  122.62    6.51
  10   0  -1 1521.20   10.96
 -10   0   1 1532.98   11.38
  10   0  -1 1500.93   13.09
  10   0   0  287.61    7.66
 -10   0   0  221.55    6.15
  10   0   0  263.43    6.89
  10   0   0  221.75    7.18
  10   0   1  540.19    7.91
  10   0   1  532.21    8.47
  10   0   2  296.18    7.24
  10   0   2  322.87    8.82
  10   0   2  319.55    7.82
 -10   0  -2  318.36    7.45
  10   0   3  775.14   10.94
  10   0   3  756.85   11.93
  10   0   3  740.14   10.66
 -10   0  -3  726.67   10.51
 -10   0  -4    6.12    5.49
  10   0   4    6.01    5.84
  10   0   4    5.48    6.06
  10   2  -6  860.10   12.56
 -10  -2   6 1049.79   15.12
  10   2  -5  293.60    8.69
 -10  -2   5  363.11   10.04
  10   2  -4   99.63    6.45
 -10  -2   4  137.57    7.55
  10   2  -3  688.15   10.76
 -10  -2   3  732.79   10.75
  10   2  -2   88.47    6.32
 -10  -2   2   91.23    6.29
 -10  -2   1 1037.87   11.96
  10   2  -1 1010.77   11.96
  10   2  -1 1012.83   10.58
 -10  -2   0  130.92    7.21
  10   2   0  122.86    6.47
  10   2   0  117.89    5.24
  10  -2   0  123.15    6.28
 -10  -2  -1  367.30    8.43
  10   2   1  381.10    8.87
 -10  -2  -2  203.90    7.81
  10   2   2  219.06    8.15
  10   2   2  222.50    6.78
  10  -2   2  202.60    6.86
  10  -2   2  230.75    6.00
  10  -2   2  217.33    5.93
  10   2   3  527.01   10.32
  10   2   3  470.00    8.94
  10  -2   3  490.77    9.27
  10  -2   3  568.71   11.42
 -10  -2  -3  546.41   10.20
  11   1  -6  205.05    7.49
  11   1  -6  140.91    5.05
  11   1  -5  659.36   10.01
  11   1  -4  487.84    8.63
 -11  -1   4  547.75    9.77
  11   1  -3  303.56    7.65
 -11  -1   3  306.94    7.57
  11   1  -2  700.16    9.48
 -11  -1   2  702.44    9.54
  11   1  -2  677.32    8.72
  11   1  -1   25.69    5.64
 -11  -1   1   21.19    5.41
  11   1  -1   19.23    4.80
  11   1  -1   23.82    5.76
  11  -1  -1   17.50    5.84
  11  -1  -1   39.65    4.66
 -11  -1   0 1578.10   14.03
  11   1   0 1496.08   13.40
  11   1   0 1553.51   12.86
  11   1   0 1642.40   14.41
  11  -1   0 1553.21   14.17
  11  -1   0 1626.55   13.17
 -11  -1  -1   31.03    5.72
  11   1   1   40.76    5.71
  11   1   1   43.94    5.61
  11   1   1   48.81    5.67
  11  -1   1   42.37    5.77
  11  -1   1   51.43    6.36
 -11  -1  -2  460.30    9.33
  11   1   2  456.38    9.29
  11   1   2  436.66    8.91
  11  -1   2  450.94    8.77
  11  -1   2  453.24    9.64
  11   1   3  643.71   10.85
  11  -1   3  630.23   10.48
  11  -1   3  658.84   11.86
 -11  -1  -3  637.05   10.90
  11   3  -1    7.55    6.78
 -11  -3   1   10.04    8.23
  12   0  -5  152.61    5.35
  12   0  -4  364.14    6.56
  12   0  -3  953.33    9.22
  12   0  -2   23.50    4.99
  12   0  -2   30.40    6.48
  12   0  -1  998.55   11.58
  12   0  -1  815.66   11.54
  12   0   0  169.25    6.20
  12   0   0  192.93    7.58
  12   0   1  451.33    8.10
  12   0   1  519.86   10.00
  12   0   2   45.25    6.19
  12   0   2   39.43    6.16
  12   0   3   87.70    7.11
  12   0   3   83.41    6.99
  12   2  -4  303.02    8.94
 -12  -2   4  316.68    9.56
  12   2  -3  783.94   12.08
 -12  -2   3  825.82   12.44
  12   2  -2    7.72    6.37
 -12  -2   2   18.52    6.22
  12   2  -1  566.47   10.56
  12  -2  -1  595.73   10.87
  12   2  -1  598.20   10.41
 -12  -2   0  135.43    7.43
  12   2   0  129.54    7.69
  12   2   0  142.75    6.57
  12  -2   0  137.08    7.11
 -12  -2  -1  335.82    9.40
  12   2   1  321.87    8.98
  12   2   1  383.31    9.00
  12  -2   1  372.44    9.22
  13   1  -4  120.35    6.57
  13   1  -4   79.46    4.27
  13   1  -3   32.51    5.75
  13   1  -3   38.41    4.33
  13   1  -2 1044.44   11.71
  13   1  -2 1004.59    9.57
  13   1  -1   16.33    6.06
  13   1  -1   10.62    4.61
  13  -1  -1    8.77    6.65
  13   1  -1    6.75    6.05
  13  -1  -1   11.40    4.30
 -13  -1   0  324.25    8.53
  13   1   0  322.22    8.37
  13   1   0  295.20    6.82
  13   1   0  309.57    8.58
  13  -1   0  323.09    8.91
 -13  -1  -1  488.22   10.43
  13   1   1  485.48    9.97
  13   1   1  504.13   10.67
  13  -1   1  488.39   10.61
  14   0  -2   99.47    5.69
  14   0  -1  688.16    9.24
  14   0  -1  737.31   12.51
   0   0   0    0.00    0.00


TITL rb2ti2o5_2 in C2/m
REM C2/m (#12 in standard setting)
CELL 0.71073  11.337012   3.824363   6.994564  90.0000 100.3077  90.0000
ZERR    2.00   0.001270   0.000515   0.000817   0.0000   0.0118   0.0000
LATT  7
SYMM -x, y,-z
SFAC O Ti Rb
UNIT 10.00 4.00 4.00
TREF
HKLF 4
END
_computing_structure_solution     'SHELXT 2014/5 (Sheldrick, 2014)'
;
_shelx_hkl_checksum              30233
_shelx_shelxl_version_number     2014/7
_olex2_submission_special_instructions 'No special instructions were received'
_oxdiff_exptl_absorpt_empirical_details
;
Empirical correction (ABSPACK) includes:
- Absorption correction using spherical harmonics
- Frame scaling
- Detector area scaling
;
_oxdiff_exptl_absorpt_empirical_full_max 2.704
_oxdiff_exptl_absorpt_empirical_full_min 0.729
_publcif_info_exptl_table_max_cols 4
_publcif_info_exptl_table_use_headnotes n
_publcif_funding_html
;
;
loop_
_space_group_symop_operation_xyz
'x, y, z'
'-x, y, -z'
'x+1/2, y+1/2, z'
'-x+1/2, y+1/2, -z'
'-x, -y, -z'
'x, -y, z'
'-x+1/2, -y+1/2, -z'
'x+1/2, -y+1/2, z'
loop_
_atom_site_label
_atom_site_type_symbol
_atom_site_fract_x
_atom_site_fract_y
_atom_site_fract_z
_atom_site_U_iso_or_equiv
_atom_site_adp_type
_atom_site_occupancy
_atom_site_site_symmetry_order
_atom_site_calc_flag
_atom_site_refinement_flags_posn
_atom_site_refinement_flags_adp
_atom_site_refinement_flags_occupancy
Rb1 Rb 0.09851(5) 0.5000 0.84812(8) 0.0210(3) Uani 1 2 d S T P
Ti1 Ti 0.35249(8) 0.5000 0.58849(14) 0.0108(3) Uani 1 2 d S T P
O3 O 0.1780(3) 0.5000 0.4797(5) 0.0143(8) Uani 1 2 d S T P
O1 O 0.5000 0.5000 0.5000 0.0197(13) Uani 1 4 d S T P
O2 O 0.3762(4) 0.5000 0.8367(6) 0.0207(9) Uani 1 2 d S T P
loop_
_atom_site_aniso_label
_atom_site_aniso_U_11
_atom_site_aniso_U_22
_atom_site_aniso_U_33
_atom_site_aniso_U_23
_atom_site_aniso_U_13
_atom_site_aniso_U_12
Rb1 0.0189(4) 0.0210(4) 0.0241(4) 0.000 0.0062(2) 0.000
Ti1 0.0044(5) 0.0102(6) 0.0173(5) 0.000 0.0007(4) 0.000
O3 0.0057(16) 0.012(2) 0.0240(19) 0.000 -0.0017(14) 0.000
O1 0.009(3) 0.013(3) 0.040(3) 0.000 0.009(2) 0.000
O2 0.019(2) 0.022(3) 0.0186(19) 0.000 -0.0011(16) 0.000
loop_
_atom_type_symbol
_atom_type_description
_atom_type_scat_dispersion_real
_atom_type_scat_dispersion_imag
_atom_type_scat_source
O O 0.0106 0.0060 'International Tables Vol C Tables 4.2.6.8 and 6.1.1.4'
Ti Ti 0.2776 0.4457 'International Tables Vol C Tables 4.2.6.8 and 6.1.1.4'
Rb Rb -0.9393 2.9676 'International Tables Vol C Tables 4.2.6.8 and 6.1.1.4'
loop_
_geom_angle_atom_site_label_1
_geom_angle_atom_site_label_2
_geom_angle_atom_site_label_3
_geom_angle
_geom_angle_site_symmetry_1
_geom_angle_site_symmetry_3
Rb1 Rb1 Ti1 77.00(2) 5_567 3_455
Rb1 Rb1 Ti1 77.00(2) 5_567 3_445
Rb1 Rb1 O3 78.28(7) 5_567 5_566
Ti1 Rb1 Ti1 64.28(2) 3_445 3_455
O3 Rb1 Rb1 156.90(7) . 5_567
O3 Rb1 Ti1 32.327(13) 5_566 3_445
O3 Rb1 Ti1 83.49(6) . 3_455
O3 Rb1 Ti1 83.49(6) . 3_445
O3 Rb1 Ti1 32.327(13) 5_566 3_455
O3 Rb1 O3 78.62(10) . 5_566
O3 Rb1 O1 55.29(5) . 3_455
O3 Rb1 O1 55.29(5) . 3_445
O3 Rb1 O2 60.33(10) . .
O3 Rb1 O2 110.74(9) . 3_445
O3 Rb1 O2 132.69(7) . 7_557
O3 Rb1 O2 110.74(9) . 3_455
O3 Rb1 O2 132.69(7) . 7_567
O1 Rb1 Rb1 107.89(2) 3_445 5_567
O1 Rb1 Rb1 107.89(2) 3_455 5_567
O1 Rb1 Ti1 31.583(15) 3_445 3_445
O1 Rb1 Ti1 31.583(15) 3_455 3_455
O1 Rb1 Ti1 78.231(19) 3_455 3_445
O1 Rb1 Ti1 78.231(19) 3_445 3_455
O1 Rb1 O3 49.18(4) 3_455 5_566
O1 Rb1 O3 49.18(4) 3_445 5_566
O1 Rb1 O1 75.031(16) 3_445 3_455
O1 Rb1 O2 101.41(6) 3_445 .
O1 Rb1 O2 55.89(7) 3_445 3_445
O1 Rb1 O2 100.25(6) 3_445 3_455
O1 Rb1 O2 101.41(6) 3_455 .
O1 Rb1 O2 100.25(6) 3_455 3_445
O1 Rb1 O2 55.89(7) 3_455 3_455
O2 Rb1 Rb1 60.17(8) 7_557 5_567
O2 Rb1 Rb1 52.77(7) 3_445 5_567
O2 Rb1 Rb1 60.17(8) 7_567 5_567
O2 Rb1 Rb1 52.77(7) 3_455 5_567
O2 Rb1 Rb1 142.77(8) . 5_567
O2 Rb1 Ti1 76.44(5) 3_455 3_445
O2 Rb1 Ti1 89.74(7) 7_567 3_455
O2 Rb1 Ti1 132.30(5) . 3_445
O2 Rb1 Ti1 28.38(7) 3_445 3_445
O2 Rb1 Ti1 132.30(5) . 3_455
O2 Rb1 Ti1 89.74(7) 7_557 3_445
O2 Rb1 Ti1 134.31(8) 7_557 3_455
O2 Rb1 Ti1 28.38(7) 3_455 3_455
O2 Rb1 Ti1 134.31(8) 7_567 3_445
O2 Rb1 Ti1 76.44(5) 3_445 3_455
O2 Rb1 O3 51.10(7) 3_445 5_566
O2 Rb1 O3 116.70(9) 7_567 5_566
O2 Rb1 O3 116.70(9) 7_557 5_566
O2 Rb1 O3 51.10(7) 3_455 5_566
O2 Rb1 O3 138.95(10) . 5_566
O2 Rb1 O1 99.29(5) 7_567 3_455
O2 Rb1 O1 99.29(5) 7_557 3_445
O2 Rb1 O1 165.07(8) 7_567 3_445
O2 Rb1 O1 165.07(8) 7_557 3_455
O2 Rb1 O2 142.55(5) 3_455 .
O2 Rb1 O2 82.73(10) 7_567 7_557
O2 Rb1 O2 142.55(5) 3_445 .
O2 Rb1 O2 112.94(6) 7_567 3_445
O2 Rb1 O2 65.68(12) 7_567 3_455
O2 Rb1 O2 93.21(10) 7_557 .
O2 Rb1 O2 112.94(6) 7_557 3_455
O2 Rb1 O2 65.68(12) 7_557 3_445
O2 Rb1 O2 74.67(9) 3_445 3_455
O2 Rb1 O2 93.21(10) 7_567 .
Rb1 Ti1 Rb1 61.715(19) 7_556 7_566
Rb1 Ti1 Rb1 118.09(2) 3 7_556
Rb1 Ti1 Rb1 130.59(2) . 7_556
Rb1 Ti1 Rb1 118.09(3) 3_545 7_566
Rb1 Ti1 Rb1 64.28(2) 3 3_545
Rb1 Ti1 Rb1 130.59(2) . 7_566
Rb1 Ti1 Rb1 110.90(3) 3 .
Rb1 Ti1 Rb1 85.71(2) 3 7_566
Rb1 Ti1 Rb1 85.71(2) 3_545 7_556
Rb1 Ti1 Rb1 110.90(3) 3_545 .
Ti1 Ti1 Rb1 109.448(17) 7_556 3_545
Ti1 Ti1 Rb1 101.58(4) 7_556 7_566
Ti1 Ti1 Rb1 172.28(4) 7_556 3
Ti1 Ti1 Rb1 101.58(4) 7_566 7_556
Ti1 Ti1 Rb1 66.29(3) 7_556 .
Ti1 Ti1 Rb1 64.30(3) 7_556 7_556
Ti1 Ti1 Rb1 66.29(3) 7_566 .
Ti1 Ti1 Rb1 109.448(17) 7_566 3
Ti1 Ti1 Rb1 64.30(3) 7_566 7_566
Ti1 Ti1 Rb1 172.28(4) 7_566 3_545
Ti1 Ti1 Ti1 76.40(4) 7_556 7_566
O3 Ti1 Rb1 90.04(11) 7_566 .
O3 Ti1 Rb1 145.31(4) . 3
O3 Ti1 Rb1 88.30(10) . 7_566
O3 Ti1 Rb1 51.26(11) . .
O3 Ti1 Rb1 136.01(10) 7_566 3_545
O3 Ti1 Rb1 72.25(10) 7_556 3_545
O3 Ti1 Rb1 90.04(11) 7_556 .
O3 Ti1 Rb1 88.30(10) . 7_556
O3 Ti1 Rb1 49.79(11) 7_556 7_556
O3 Ti1 Rb1 110.00(12) 7_566 7_556
O3 Ti1 Rb1 136.01(10) 7_556 3
O3 Ti1 Rb1 110.00(12) 7_556 7_566
O3 Ti1 Rb1 72.25(10) 7_566 3
O3 Ti1 Rb1 49.79(11) 7_566 7_566
O3 Ti1 Rb1 145.31(4) . 3_545
O3 Ti1 Ti1 114.41(11) 7_566 7_556
O3 Ti1 Ti1 38.96(10) 7_556 7_556
O3 Ti1 Ti1 38.90(3) . 7_566
O3 Ti1 Ti1 38.90(3) . 7_556
O3 Ti1 Ti1 114.41(11) 7_556 7_566
O3 Ti1 Ti1 38.96(10) 7_566 7_566
O3 Ti1 O3 77.86(10) 7_556 .
O3 Ti1 O3 77.86(10) 7_566 .
O3 Ti1 O3 148.6(2) 7_556 7_566
O1 Ti1 Rb1 60.79(2) . 3
O1 Ti1 Rb1 57.30(2) . 7_556
O1 Ti1 Rb1 60.79(2) . 3_545
O1 Ti1 Rb1 169.71(4) . .
O1 Ti1 Rb1 57.30(2) . 7_566
O1 Ti1 Ti1 121.07(4) . 7_566
O1 Ti1 Ti1 121.07(4) . 7_556
O1 Ti1 O3 139.03(12) . .
O1 Ti1 O3 92.73(11) . 7_566
O1 Ti1 O3 92.73(11) . 7_556
O2 Ti1 Rb1 61.30(11) . 3
O2 Ti1 Rb1 61.30(11) . 3_545
O2 Ti1 Rb1 59.47(14) . .
O2 Ti1 Rb1 144.38(7) . 7_566
O2 Ti1 Rb1 144.38(7) . 7_556
O2 Ti1 Ti1 112.17(11) . 7_556
O2 Ti1 Ti1 112.17(11) . 7_566
O2 Ti1 O3 110.73(18) . .
O2 Ti1 O3 103.48(11) . 7_566
O2 Ti1 O3 103.48(11) . 7_556
O2 Ti1 O1 110.25(15) . .
Rb1 O3 Rb1 101.38(10) . 5_566
Ti1 O3 Rb1 75.42(10) 7_566 5_566
Ti1 O3 Rb1 162.49(17) . 5_566
Ti1 O3 Rb1 98.40(12) 7_566 .
Ti1 O3 Rb1 98.40(12) 7_556 .
Ti1 O3 Rb1 75.42(10) 7_556 5_566
Ti1 O3 Rb1 96.13(14) . .
Ti1 O3 Ti1 102.14(10) 7_566 .
Ti1 O3 Ti1 148.6(2) 7_556 7_566
Ti1 O3 Ti1 102.14(10) 7_556 .
Rb1 O1 Rb1 75.031(16) 3 3_545
Rb1 O1 Rb1 180.0 3_545 7_566
Rb1 O1 Rb1 104.969(16) 7_556 3_545
Rb1 O1 Rb1 75.031(16) 7_556 7_566
Rb1 O1 Rb1 104.969(16) 3 7_566
Rb1 O1 Rb1 180.0 7_556 3
Ti1 O1 Rb1 92.37(3) . 7_556
Ti1 O1 Rb1 87.63(3) . 3
Ti1 O1 Rb1 87.63(3) . 3_545
Ti1 O1 Rb1 92.37(3) 5_666 3_545
Ti1 O1 Rb1 87.63(3) 5_666 7_566
Ti1 O1 Rb1 87.63(3) 5_666 7_556
Ti1 O1 Rb1 92.37(3) 5_666 3
Ti1 O1 Rb1 92.37(3) . 7_566
Ti1 O1 Ti1 180.0 5_666 .
Rb1 O2 Rb1 67.06(6) 7_557 3_545
Rb1 O2 Rb1 114.32(12) 7_557 3
Rb1 O2 Rb1 67.06(6) 7_567 3
Rb1 O2 Rb1 86.79(10) 7_557 .
Rb1 O2 Rb1 142.54(5) 3_545 .
Rb1 O2 Rb1 82.73(10) 7_567 7_557
Rb1 O2 Rb1 114.32(12) 7_567 3_545
Rb1 O2 Rb1 86.79(10) 7_567 .
Rb1 O2 Rb1 74.67(9) 3 3_545
Rb1 O2 Rb1 142.54(5) 3 .
Ti1 O2 Rb1 92.81(16) . .
Ti1 O2 Rb1 138.61(5) . 7_567
Ti1 O2 Rb1 90.33(13) . 3
Ti1 O2 Rb1 138.61(5) . 7_557
Ti1 O2 Rb1 90.33(13) . 3_545
loop_
_geom_bond_atom_site_label_1
_geom_bond_atom_site_label_2
_geom_bond_distance
_geom_bond_site_symmetry_2
Rb1 Rb1 3.3468(11) 5_567
Rb1 Ti1 3.5945(10) 3_445
Rb1 Ti1 3.5945(10) 3_455
Rb1 O3 2.878(4) .
Rb1 O3 3.537(4) 5_566
Rb1 O1 3.1400(5) 3_445
Rb1 O1 3.1400(5) 3_455
Rb1 O2 3.153(3) 3_445
Rb1 O2 2.894(3) 7_557
Rb1 O2 3.153(3) 3_455
Rb1 O2 3.164(4) .
Rb1 O2 2.894(3) 7_567
Ti1 Rb1 3.5945(10) 3
Ti1 Rb1 3.5945(10) 3_545
Ti1 Rb1 3.7281(10) 7_556
Ti1 Rb1 3.7281(10) 7_566
Ti1 Ti1 3.0920(14) 7_566
Ti1 Ti1 3.0920(14) 7_556
Ti1 O3 1.9861(10) 7_556
Ti1 O3 1.988(4) .
Ti1 O3 1.9861(10) 7_566
Ti1 O1 1.8842(9) .
Ti1 O2 1.709(4) .
O3 Rb1 3.537(4) 5_566
O3 Ti1 1.9861(10) 7_566
O3 Ti1 1.9861(10) 7_556
O1 Rb1 3.1400(5) 7_556
O1 Rb1 3.1400(5) 3_545
O1 Rb1 3.1400(5) 7_566
O1 Rb1 3.1400(5) 3
O1 Ti1 1.8841(9) 5_666
O2 Rb1 2.894(3) 7_567
O2 Rb1 3.153(3) 3
O2 Rb1 3.153(3) 3_545
O2 Rb1 2.894(3) 7_557
loop_
_publcif_info_datablock.id
_publcif_info_datablock.publ_exptl
_publcif_info_datablock.publ_geom
_publcif_info_datablock.structure
{a1145387-be42-4378-941b-59a9ea0b78fd} y y y
loop_
_publcif_info_exptl_table_extra_item
sin_theta_over_lambda_max
loop_
_publcif_info_tables.block_id
_publcif_info_tables.reference_item
{a1145387-be42-4378-941b-59a9ea0b78fd} '_publcif_info_datablock.publ_exptl'
loop_
_publcif_info_cif.paper_type
CE
