#------------------------------------------------------------------------------
#$Date: 2016-02-14 16:26:36 +0200 (Sun, 14 Feb 2016) $
#$Revision: 176435 $
#$URL: svn://www.crystallography.net/cod/cif/2/10/07/2100725.cif $
#------------------------------------------------------------------------------
#
# This file is available in the Crystallography Open Database (COD),
# http://www.crystallography.net/. The original data for this entry
# were provided by IUCr Journals, http://journals.iucr.org/.
#
# The file may be used within the scientific community so long as
# proper attribution is given to the journal article from which the
# data were obtained.
#
data_2100725
loop_
_publ_author_name
'Wang, S.-L.'
'Yeh, J.-Y.'
_publ_section_title
;
 Pb^2+^ cation ordering in Pb~3~(Mo~4~O~6~)~4~
;
_journal_issue                   4
_journal_name_full               'Acta Crystallographica Section B'
_journal_page_first              446
_journal_page_last               451
_journal_paper_doi               10.1107/S0108768191001672
_journal_volume                  47
_journal_year                    1991
_chemical_formula_sum            'Mo8 O24 Pb3'
_symmetry_cell_setting           tetragonal
_symmetry_space_group_name_H-M   'P 4/m n c'
_cell_angle_alpha                90
_cell_angle_beta                 90
_cell_angle_gamma                90
_cell_formula_units_Z            2
_cell_length_a                   9.6150(10)
_cell_length_b                   9.6150(10)
_cell_length_c                   11.362(3)
_cell_volume                     1050.4(3)
_diffrn_radiation_type           Mo
_diffrn_radiation_wavelength     0.7107
_exptl_absorpt_coefficient_mu    33.21
_exptl_crystal_density_diffrn    8.033
_exptl_crystal_F_000             2220
_cod_data_source_file            cr0294.cif
_cod_data_source_block           cr0294a
_cod_original_sg_symbol_H-M      P4/mnc
_cod_original_formula_sum        'Pb3 Mo8 O24'
_cod_database_code               2100725
loop_
_atom_site_label
_atom_site_fract_x
_atom_site_fract_y
_atom_site_fract_z
_atom_site_U_iso_or_equiv
Pb1 0 0 .3433(9) .0358(7)
Mo1 .60194(9) .10194(9) 0 .004(2)
Mo2 .14360(9) .64360(9) 0.5 .008(3)
O1 .0423(8) .7618(7) 0 .008(2)
O2 -.2072(8) .7072(7) 0.5 .007(2)
