#------------------------------------------------------------------------------
#$Date: 2017-10-13 08:28:26 +0300 (Fri, 13 Oct 2017) $
#$Revision: 201972 $
#$URL: file:///home/coder/svn-repositories/cod/cif/2/10/18/2101851.cif $
#------------------------------------------------------------------------------
#
# This file is available in the Crystallography Open Database (COD),
# http://www.crystallography.net/. The original data for this entry
# were provided by IUCr Journals, http://journals.iucr.org/.
#
# The file may be used within the scientific community so long as
# proper attribution is given to the journal article from which the
# data were obtained.
#
data_2101851
loop_
_publ_author_name
'Bolzan, A. A.'
'Fong, C.'
'Kennedy, B. J.'
'Howard, C. J.'
_publ_section_title
;
 Structural Studies of Rutile-Type Metal Dioxides
;
_journal_issue                   3
_journal_name_full               'Acta Crystallographica Section B'
_journal_page_first              373
_journal_page_last               380
_journal_paper_doi               10.1107/S0108768197001468
_journal_volume                  53
_journal_year                    1997
_chemical_formula_sum            'Ge O2'
_symmetry_cell_setting           tetragonal
_symmetry_space_group_name_Hall  '-P 4n 2n'
_symmetry_space_group_name_H-M   'P 42/m n m'
_cell_angle_alpha                90.0
_cell_angle_beta                 90.0
_cell_angle_gamma                90.0
_cell_formula_units_Z            2
_cell_length_a                   4.40656(5)
_cell_length_b                   4.40656(5)
_cell_length_c                   2.86186(3)
_cell_volume                     55.5709(11)
_diffrn_radiation_probe          neutron
_diffrn_radiation_type           neutron
_diffrn_radiation_wavelength     1.372
_cod_data_source_file            br0044.cif
_cod_data_source_block           br0044a
_cod_original_formula_sum        'Ge1 O2'
_cod_database_code               2101851
loop_
_atom_site_label
_atom_site_fract_x
_atom_site_fract_y
_atom_site_fract_z
Ge .0 .0 .0
O .30604(6) .30604(6) .0
loop_
_cod_related_entry_id
_cod_related_entry_database
_cod_related_entry_code
1 ChemSpider 10605912
