#------------------------------------------------------------------------------
#$Date: 2016-02-14 16:26:36 +0200 (Sun, 14 Feb 2016) $
#$Revision: 176435 $
#$URL: svn://www.crystallography.net/cod/cif/2/10/16/2101680.cif $
#------------------------------------------------------------------------------
#
# This file is available in the Crystallography Open Database (COD),
# http://www.crystallography.net/. The original data for this entry
# were provided by IUCr Journals, http://journals.iucr.org/.
#
# The file may be used within the scientific community so long as
# proper attribution is given to the journal article from which the
# data were obtained.
#
data_2101680
loop_
_publ_author_name
'Schofield, P. F.'
'Knight, K. S.'
'Redfern, S. A. T.'
'Cressey, G.'
_publ_section_title
;
 Distortion Characteristics Across the Structural Phase Transition in
 (Cu~1{-~<i>x</i>}Zn~<i>x~</i>)WO~4~
;
_journal_issue                   1
_journal_name_full               'Acta Crystallographica Section B'
_journal_page_first              102
_journal_page_last               112
_journal_paper_doi               10.1107/S0108768196010403
_journal_volume                  53
_journal_year                    1997
_chemical_formula_sum            'Cu0.35 O4 W Zn0.65'
_symmetry_cell_setting           triclinic
_symmetry_space_group_name_Hall  '-P 1'
_symmetry_space_group_name_H-M   'P -1'
_cell_angle_alpha                89.3597(14)
_cell_angle_beta                 91.3394(13)
_cell_angle_gamma                93.2364(13)
_cell_formula_units_Z            2
_cell_length_a                   4.69010(10)
_cell_length_b                   5.76474(13)
_cell_length_c                   4.90647(8)
_cell_volume                     132.403(5)
_diffrn_radiation_probe          neutron
_diffrn_radiation_type           neutron
_diffrn_radiation_wavelength     1.227
_cod_data_source_file            ha0150.cif
_cod_data_source_block           65
_cod_original_cell_volume        132.403(4)
_cod_original_formula_sum        'Cu0.35 O4 W1 Zn0.65'
_cod_database_code               2101680
loop_
_atom_site_label
_atom_site_fract_x
_atom_site_fract_y
_atom_site_fract_z
Zn 0.4989(10) 0.6772(8) 0.2578(10)
W -0.0094(13) 0.1774(10) 0.2488(12)
O1 0.2544(10) 0.3814(8) 0.3965(10)
O2 0.2176(10) 0.9020(8) 0.4428(12)
O3 0.7429(12) 0.3689(10) 0.0843(14)
O4 0.7859(11) 0.8890(9) 0.0686(12)
loop_
_geom_bond_atom_site_label_1
_geom_bond_atom_site_label_2
_geom_bond_site_symmetry_2
_geom_bond_distance
_geom_bond_publ_flag
Zn O2 . 2.126(8) no
Zn O1 . 2.116(8) no
Zn O3 . 2.345(9) no
Zn O4 . 2.003(9) no
Zn O1 2_666 2.066(9) no
Zn O3 2_665 2.015(9) no
W O1 . 1.803(10) no
W O2 1_545 2.161(10) no
W O3 1_455 1.817(9) no
W O4 1_445 2.069(10) no
W O2 2_566 1.860(10) no
W O4 2_665 1.950(10) no
