#------------------------------------------------------------------------------
#$Date: 2016-02-14 16:26:36 +0200 (Sun, 14 Feb 2016) $
#$Revision: 176435 $
#$URL: svn://www.crystallography.net/cod/cif/2/10/16/2101691.cif $
#------------------------------------------------------------------------------
#
# This file is available in the Crystallography Open Database (COD),
# http://www.crystallography.net/. The original data for this entry
# were provided by IUCr Journals, http://journals.iucr.org/.
#
# The file may be used within the scientific community so long as
# proper attribution is given to the journal article from which the
# data were obtained.
#
data_2101691
loop_
_publ_author_name
'Schofield, P. F.'
'Knight, K. S.'
'Redfern, S. A. T.'
'Cressey, G.'
_publ_section_title
;
 Distortion Characteristics Across the Structural Phase Transition in
 (Cu~1{-~<i>x</i>}Zn~<i>x~</i>)WO~4~
;
_journal_issue                   1
_journal_name_full               'Acta Crystallographica Section B'
_journal_page_first              102
_journal_page_last               112
_journal_paper_doi               10.1107/S0108768196010403
_journal_volume                  53
_journal_year                    1997
_chemical_formula_sum            'Cu0.95 O4 W Zn0.05'
_symmetry_cell_setting           triclinic
_symmetry_space_group_name_Hall  '-P 1'
_symmetry_space_group_name_H-M   'P -1'
_cell_angle_alpha                88.3889(11)
_cell_angle_beta                 92.4646(10)
_cell_angle_gamma                97.1148(10)
_cell_formula_units_Z            2
_cell_length_a                   4.70682(11)
_cell_length_b                   5.83985(10)
_cell_length_c                   4.88214(6)
_cell_volume                     133.004(4)
_diffrn_radiation_probe          neutron
_diffrn_radiation_type           neutron
_diffrn_radiation_wavelength     1.227
_cod_data_source_file            ha0150.cif
_cod_data_source_block           5
_cod_original_cell_volume        133.004(5)
_cod_original_formula_sum        'Cu0.95 O4 W1 Zn0.05'
_cod_database_code               2101691
loop_
_atom_site_label
_atom_site_fract_x
_atom_site_fract_y
_atom_site_fract_z
Zn 0.5055(5) 0.6617(3) 0.2561(5)
W -0.02204(6) 0.1718(5) 0.2447(7)
O1 0.26310(6) 0.3808(5) 0.4020(6)
O2 0.2180(6) 0.9082(5) 0.4471(6)
O3 0.7514(6) 0.3564(5) 0.0748(7)
O4 0.7839(6) 0.8782(5) 0.0723(6)
loop_
_geom_bond_atom_site_label_1
_geom_bond_atom_site_label_2
_geom_bond_site_symmetry_2
_geom_bond_distance
_geom_bond_publ_flag
Zn O2 . 2.333(4) no
Zn O1 . 2.010(3) no
Zn O3 . 2.448(4) no
Zn O4 . 1.936(4) no
Zn O1 2_666 1.980(4) no
Zn O3 2_665 1.976(4) no
W O1 . 1.854(4) no
W O2 1_545 2.207(4) no
W O3 1_455 1.774(5) no
W O4 1_445 2.027(5) no
W O2 2_566 1.818(4) no
W O4 2_665 1.998(5) no
