#------------------------------------------------------------------------------
#$Date: 2016-02-14 16:26:36 +0200 (Sun, 14 Feb 2016) $
#$Revision: 176435 $
#$URL: svn://www.crystallography.net/cod/cif/2/10/16/2101688.cif $
#------------------------------------------------------------------------------
#
# This file is available in the Crystallography Open Database (COD),
# http://www.crystallography.net/. The original data for this entry
# were provided by IUCr Journals, http://journals.iucr.org/.
#
# The file may be used within the scientific community so long as
# proper attribution is given to the journal article from which the
# data were obtained.
#
data_2101688
loop_
_publ_author_name
'Schofield, P. F.'
'Knight, K. S.'
'Redfern, S. A. T.'
'Cressey, G.'
_publ_section_title
;
 Distortion Characteristics Across the Structural Phase Transition in
 (Cu~1{-~<i>x</i>}Zn~<i>x~</i>)WO~4~
;
_journal_issue                   1
_journal_name_full               'Acta Crystallographica Section B'
_journal_page_first              102
_journal_page_last               112
_journal_paper_doi               10.1107/S0108768196010403
_journal_volume                  53
_journal_year                    1997
_chemical_formula_sum            'Cu0.8 O4 W Zn0.2'
_symmetry_cell_setting           triclinic
_symmetry_space_group_name_Hall  '-P 1'
_symmetry_space_group_name_H-M   'P -1'
_cell_angle_alpha                88.511(2)
_cell_angle_beta                 92.3254(17)
_cell_angle_gamma                96.7350(19)
_cell_formula_units_Z            2
_cell_length_a                   4.70707(19)
_cell_length_b                   5.83407(18)
_cell_length_c                   4.88649(10)
_cell_volume                     133.124(7)
_diffrn_radiation_probe          neutron
_diffrn_radiation_type           neutron
_diffrn_radiation_wavelength     1.227
_cod_data_source_file            ha0150.cif
_cod_data_source_block           20
_cod_original_cell_volume        133.124(8)
_cod_original_formula_sum        'Cu0.80 O4 W1 Zn0.20'
_cod_database_code               2101688
loop_
_atom_site_label
_atom_site_fract_x
_atom_site_fract_y
_atom_site_fract_z
Zn 0.5040(9) 0.6648(5) 0.2551(9)
W -0.0189(10) 0.1718(8) 0.2443(10)
O1 0.2604(10) 0.3794(7) 0.4018(9)
O2 0.2184(8) 0.9089(8) 0.4461(10)
O3 0.7487(10) 0.3582(8) 0.0746(10)
O4 0.7830(9) 0.8769(8) 0.0712(10)
loop_
_geom_bond_atom_site_label_1
_geom_bond_atom_site_label_2
_geom_bond_site_symmetry_2
_geom_bond_distance
_geom_bond_publ_flag
Zn O2 . 2.308(7) no
Zn O1 . 2.039(7) no
Zn O3 . 2.439(7) no
Zn O4 . 1.929(7) no
Zn O1 2_666 2.000(7) no
Zn O3 2_665 1.962(7) no
W O1 . 1.839(6) no
W O2 1_545 2.192(5) no
W O3 1_455 1.796(6) no
W O4 1_445 2.044(6) no
W O2 2_566 1.835(6) no
W O4 2_665 1.981(6) no
