#------------------------------------------------------------------------------
#$Date: 2016-02-14 16:26:36 +0200 (Sun, 14 Feb 2016) $
#$Revision: 176435 $
#$URL: svn://www.crystallography.net/cod/cif/2/10/16/2101687.cif $
#------------------------------------------------------------------------------
#
# This file is available in the Crystallography Open Database (COD),
# http://www.crystallography.net/. The original data for this entry
# were provided by IUCr Journals, http://journals.iucr.org/.
#
# The file may be used within the scientific community so long as
# proper attribution is given to the journal article from which the
# data were obtained.
#
data_2101687
loop_
_publ_author_name
'Schofield, P. F.'
'Knight, K. S.'
'Redfern, S. A. T.'
'Cressey, G.'
_publ_section_title
;
 Distortion Characteristics Across the Structural Phase Transition in
 (Cu~1{-~<i>x</i>}Zn~<i>x~</i>)WO~4~
;
_journal_issue                   1
_journal_name_full               'Acta Crystallographica Section B'
_journal_page_first              102
_journal_page_last               112
_journal_paper_doi               10.1107/S0108768196010403
_journal_volume                  53
_journal_year                    1997
_chemical_formula_sum            'Cu0.7 O4 W Zn0.25'
_chemical_formula_weight         311.86
_symmetry_cell_setting           triclinic
_symmetry_space_group_name_Hall  '-P 1'
_symmetry_space_group_name_H-M   'P -1'
_cell_angle_alpha                88.5414(13)
_cell_angle_beta                 92.2845(12)
_cell_angle_gamma                96.6112(13)
_cell_formula_units_Z            2
_cell_length_a                   4.70508(13)
_cell_length_b                   5.82979(11)
_cell_length_c                   4.88441(7)
_cell_volume                     132.951(5)
_diffrn_radiation_probe          neutron
_diffrn_radiation_type           neutron
_diffrn_radiation_wavelength     1.227
_cod_data_source_file            ha0150.cif
_cod_data_source_block           25
_cod_original_cell_volume        132.952(5)
_cod_original_formula_sum        'Cu0.70 O4 W1 Zn0.25'
_cod_database_code               2101687
loop_
_atom_site_label
_atom_site_fract_x
_atom_site_fract_y
_atom_site_fract_z
Zn 0.5040(7) 0.6637(4) 0.2553(7)
W -0.0191(8) 0.1732(6) 0.2461(8)
O1 0.2617(8) 0.3797(6) 0.4020(7)
O2 0.2171(7) 0.9094(6) 0.4462(8)
O3 0.7498(8) 0.3581(6) 0.0771(8)
O4 0.7849(7) 0.8791(6) 0.0705(8)
loop_
_geom_bond_atom_site_label_1
_geom_bond_atom_site_label_2
_geom_bond_site_symmetry_2
_geom_bond_distance
_geom_bond_publ_flag
Zn O2 . 2.314(7) no
Zn O1 . 2.031(7) no
Zn O3 . 2.430(7) no
Zn O4 . 1.947(7) no
Zn O1 2_666 1.994(7) no
Zn O3 2_665 1.974(7) no
W O1 . 1.837(7) no
W O2 1_545 2.188(5) no
W O3 1_455 1.783(7) no
W O4 1_445 2.043(7) no
W O2 2_566 1.825(7) no
W O4 2_665 1.984(7) no
