#------------------------------------------------------------------------------
#$Date: 2016-02-14 16:26:36 +0200 (Sun, 14 Feb 2016) $
#$Revision: 176435 $
#$URL: svn://www.crystallography.net/cod/cif/2/10/16/2101682.cif $
#------------------------------------------------------------------------------
#
# This file is available in the Crystallography Open Database (COD),
# http://www.crystallography.net/. The original data for this entry
# were provided by IUCr Journals, http://journals.iucr.org/.
#
# The file may be used within the scientific community so long as
# proper attribution is given to the journal article from which the
# data were obtained.
#
data_2101682
loop_
_publ_author_name
'Schofield, P. F.'
'Knight, K. S.'
'Redfern, S. A. T.'
'Cressey, G.'
_publ_section_title
;
 Distortion Characteristics Across the Structural Phase Transition in
 (Cu~1{-~<i>x</i>}Zn~<i>x~</i>)WO~4~
;
_journal_issue                   1
_journal_name_full               'Acta Crystallographica Section B'
_journal_page_first              102
_journal_page_last               112
_journal_paper_doi               10.1107/S0108768196010403
_journal_volume                  53
_journal_year                    1997
_chemical_formula_sum            'Cu0.45 O4 W Zn0.55'
_chemical_formula_weight         312.40
_symmetry_cell_setting           triclinic
_symmetry_space_group_name_Hall  '-P 1'
_symmetry_space_group_name_H-M   'P -1'
_cell_angle_alpha                89.1685(17)
_cell_angle_beta                 91.5190(16)
_cell_angle_gamma                94.1000(16)
_cell_formula_units_Z            2
_cell_length_a                   4.69174(12)
_cell_length_b                   5.77857(13)
_cell_length_c                   4.90054(9)
_cell_volume                     132.464(5)
_diffrn_radiation_probe          neutron
_diffrn_radiation_type           neutron
_diffrn_radiation_wavelength     1.227
_cod_data_source_file            ha0150.cif
_cod_data_source_block           55
_cod_original_formula_sum        'Cu0.45 O4 W1 Zn0.55'
_cod_database_code               2101682
loop_
_atom_site_label
_atom_site_fract_x
_atom_site_fract_y
_atom_site_fract_z
Zn 0.4953(10) 0.6776(8) 0.2599(10)
W -0.0065(13) 0.1780(10) 0.2483(12)
O1 0.2529(10) 0.3787(8) 0.3981(11)
O2 0.2206(10) 0.9041(9) 0.4429(12)
O3 0.7449(13) 0.3656(10) 0.0816(14)
O4 0.7840(11) 0.8875(9) 0.0703(11)
loop_
_geom_bond_atom_site_label_1
_geom_bond_atom_site_label_2
_geom_bond_site_symmetry_2
_geom_bond_distance
_geom_bond_publ_flag
Zn O2 . 2.125(7) no
Zn O1 . 2.113(6) no
Zn O3 . 2.405(8) no
Zn O4 . 1.992(7) no
Zn O1 2_666 2.061(7) no
Zn O3 2_665 2.001(8) no
W O1 . 1.772(9) no
W O2 1_545 2.166(8) no
W O3 1_455 1.819(7) no
W O4 1_445 2.075(8) no
W O2 2_566 1.876(8) no
W O4 2_665 1.956(8) no
