#------------------------------------------------------------------------------
#$Date: 2017-10-13 08:28:26 +0300 (Fri, 13 Oct 2017) $
#$Revision: 201972 $
#$URL: file:///home/coder/svn-repositories/cod/cif/2/10/21/2102124.cif $
#------------------------------------------------------------------------------
#
# This file is available in the Crystallography Open Database (COD),
# http://www.crystallography.net/. The original data for this entry
# were provided by IUCr Journals, http://journals.iucr.org/.
#
# The file may be used within the scientific community so long as
# proper attribution is given to the journal article from which the
# data were obtained.
#
data_2102124
loop_
_publ_author_name
'Zibrov, I. P.'
'Filonenko, V. P.'
'Sundberg, M.'
'Werner, P.-E.'
_publ_section_title
;
 Structures and phase transitions of <i>B</i>-Ta~2~O~5~ and
 <i>Z</i>-Ta~2~O~5~: two high-pressure forms of Ta~2~O~5~
;
_journal_issue                   4
_journal_name_full               'Acta Crystallographica Section B'
_journal_page_first              659
_journal_page_last               665
_journal_paper_doi               10.1107/S0108768100005462
_journal_volume                  56
_journal_year                    2000
_chemical_formula_iupac          'Ta2 O5'
_chemical_formula_moiety         'O5 Ta2'
_chemical_formula_structural     'Ta2 O5'
_chemical_formula_sum            'O5 Ta2'
_chemical_formula_weight         441.89
_chemical_name_common            Z-Ta2O5
_chemical_name_systematic
;
ditantalum penta oxide
;
_space_group_IT_number           5
_symmetry_cell_setting           monoclinic
_symmetry_space_group_name_Hall  'C 2y'
_symmetry_space_group_name_H-M   'C 1 2 1'
_cell_angle_alpha                90.0
_cell_angle_beta                 108.200(2)
_cell_angle_gamma                90.0
_cell_formula_units_Z            2
_cell_length_a                   5.22520(10)
_cell_length_b                   4.69910(10)
_cell_length_c                   5.85340(10)
_cell_measurement_temperature    293
_cell_volume                     136.533(5)
_computing_cell_refinement       'DBW 3.2 S, Wiles et al. 1988'
_computing_data_collection       'Stoe Stadi/P, Powdat'
_computing_data_reduction        'Stoe Stadi/P, Rawdat'
_computing_structure_refinement  'DBW 3.2 S, Wiles et al. 1988'
_diffrn_ambient_temperature      293
_diffrn_measurement_device_type  'Stoe Small PDS'
_diffrn_radiation_monochromator  Ge
_diffrn_radiation_type           CuK\a~1~
_diffrn_radiation_wavelength     1.54056
_exptl_crystal_density_diffrn    10.75
_exptl_crystal_density_method    'not measured'
_refine_ls_extinction_method     none
_refine_ls_goodness_of_fit_all   1.07
_refine_ls_matrix_type           fsqd
_refine_ls_number_parameters     47
_refine_ls_shift/su_max          .2
_refine_ls_structure_factor_coef Inet
_refine_ls_weighting_details     'w = 1/Y~i~'
_refine_ls_weighting_scheme      calc
_cod_data_source_file            os0050.cif
_cod_data_source_block           Z
_cod_depositor_comments
;
Luca 25/2/2014
Corrected the occupancies

The following automatic conversions were performed:

'_refine_ls_weighting_scheme' value '1/Y~i~' was changed to 'calc'.
New tag '_refine_ls_weighting_details' was created. The value of the
new tag was set to 'w = 1/Y~i~'.

Automatic conversion script
Id: cif_fix_values 3143 2015-03-26 13:38:13Z robertas 
;
_cod_original_cell_volume        136.53
_cod_original_sg_symbol_H-M      'C 2'
_cod_database_code               2102124
loop_
_symmetry_equiv_pos_site_id
_symmetry_equiv_pos_as_xyz
1 x,y,z
2 -x,y,-z
3 1/2+x,1/2+y,z
4 1/2-x,1/2+y,-z
loop_
_atom_site_label
_atom_site_fract_x
_atom_site_fract_y
_atom_site_fract_z
_atom_site_U_iso_or_equiv
_atom_site_thermal_displace_type
_atom_site_occupancy_[sic]
_atom_site_type_symbol
_atom_site_occupancy
Ta .2172(3) 0 .2696(4) 1.73(6) Uiso 4 Ta 1
O1 .189(4) .164(5) .934(4) .7(3) Uiso 4 O 1
O2 .090(5) .681(5) .323(4) .7(3) Uiso 4 O 1
O3 0 .201(7) .5 .7(3) Uiso 2 O 1
loop_
_atom_type_symbol
_atom_type_description
_atom_type_scat_dispersion_real
_atom_type_scat_dispersion_imag
_atom_type_scat_source
Ta Ta -6.351 5.271 'International Tables for Crystallography (Vol. IV)'
O O .047 .032 'International Tables for Crystallography (Vol. IV)'
loop_
_geom_bond_atom_site_label_1
_geom_bond_atom_site_label_2
_geom_bond_site_symmetry_2
_geom_bond_distance
_geom_bond_publ_flag
Ta Ta 2_555 3.262(9) yes
Ta Ta 2_656 3.321(9) yes
Ta O1 1_554 2.07(7) yes
Ta O1 2_556 2.22(8) yes
Ta O1 4_546 2.13(7) yes
Ta O2 1_545 1.71(7) yes
Ta O2 3_545 2.06(8) yes
Ta O3 . 2.22(4) yes
Ta O3 3_545 2.18(6) yes
O1 O1 2_557 2.33(11) yes
O1 O1 4_547 2.49(10) yes
O1 O2 2_546 2.86(10) yes
O1 O2 3_546 2.57(10) yes
O1 O2 4_546 2.17(11) yes
O1 O2 2_556 2.99(10) yes
O1 O3 . 2.43(7) yes
O2 O2 2_556 2.53(10) yes
O2 O3 1_565 2.75(11) yes
O2 O3 3_555 2.07(8) yes
O2 O2 2_556 2.53(11) yes
loop_
_cod_related_entry_id
_cod_related_entry_database
_cod_related_entry_code
1 ChemSpider 55987
