#------------------------------------------------------------------------------
#$Date: 2018-08-28 16:03:34 +0300 (Tue, 28 Aug 2018) $
#$Revision: 210194 $
#$URL: file:///home/coder/svn-repositories/cod/cif/2/10/29/2102955.cif $
#------------------------------------------------------------------------------
#
# This file is available in the Crystallography Open Database (COD),
# http://www.crystallography.net/. The original data for this entry
# were provided by IUCr Journals, http://journals.iucr.org/.
#
# The file may be used within the scientific community so long as
# proper attribution is given to the journal article from which the
# data were obtained.
#
data_2102955
loop_
_publ_author_name
'Boysen, H.'
'Lerch, M.'
'Stys, A.'
'Senyshyn, A.'
_publ_contact_author_address
;Department f\"ur Geo- und Umweltwissenschaften,
Sektion Kristallographie, LMU M\"unchen,
 Am Coulombwall 1, 85748 Garching, Germany
;
_publ_contact_author_email       boysen@lmu.de
_publ_contact_author_fax         498928914015
_publ_contact_author_name        'Hans Boysen'
_publ_contact_author_phone       498928914040
_publ_section_title
;
 Structure and oxygen mobility in mayenite (Ca~12~Al~14~O~33~): a
 high-temperature neutron powder diffraction study
;
_journal_coeditor_code           WS5057
_journal_issue                   5
_journal_name_full               'Acta Crystallographica Section B'
_journal_page_first              675
_journal_page_last               682
_journal_paper_doi               10.1107/S0108768107030005
_journal_volume                  63
_journal_year                    2007
_chemical_formula_moiety         'Al14  Ca12  O33'
_chemical_formula_sum            'Al14 Ca12 O33'
_chemical_formula_weight         1386.7
_chemical_name_mineral           mayenite
_space_group_IT_number           220
_symmetry_cell_setting           cubic
_symmetry_space_group_name_Hall  'I -4bd 2c 3'
_symmetry_space_group_name_H-M   'I -4 3 d'
_cell_angle_alpha                90
_cell_angle_beta                 90
_cell_angle_gamma                90
_cell_formula_units_Z            2
_cell_length_a                   11.9794
_cell_length_b                   11.9794
_cell_length_c                   11.9794
_cell_measurement_temperature    298
_cell_volume                     1719.116
_computing_publication_material  '(Jana2000; Petricek and Dusek, 2000)'
_computing_structure_refinement  '(Jana2000; Petricek and Dusek, 2000)'
_diffrn_ambient_temperature      293
_diffrn_measurement_device_type  'Debye Scherrer'
_diffrn_radiation_probe          neutron
_diffrn_radiation_type           neutron
_diffrn_radiation_wavelength     1.548
_exptl_absorpt_coefficient_mu    0.001
_exptl_absorpt_process_details
'(Jana2000; Petricek, Dusek & Palatinus, 2000)'
_exptl_crystal_density_diffrn    2.678
_exptl_crystal_F_000             1380
_refine_ls_extinction_method     none
_refine_ls_goodness_of_fit_ref   1.68
_refine_ls_number_parameters     45
_refine_ls_R_factor_all          0.0152
_refine_ls_R_factor_gt           0.0149
_refine_ls_shift/su_max          0.0181
_refine_ls_shift/su_mean         0.0021
_refine_ls_weighting_scheme      sigma
_refine_ls_wR_factor_gt          0.0120
_refine_ls_wR_factor_ref         0.0120
_cod_data_source_file            ws5057.cif
_cod_data_source_block           I
_cod_depositor_comments
;
 Renaming the _chemical_name_common data item to _chemical_name_mineral
 and removing the '?' prefix from the data value.

 Antanas Vaitkus,
 2018-08-28
;
_cod_original_cell_volume        1719.131
_cod_original_sg_symbol_Hall     'I -4bd;2ab;3'
_cod_database_code               2102955
loop_
_symmetry_equiv_pos_site_id
_symmetry_equiv_pos_as_xyz
1 x,y,z
2 1/4+y,3/4-x,1/4-z
3 x,-y,1/2-z
4 z,x,y
5 -x,1/2-y,z
6 1/4-y,3/4-x,3/4+z
7 1/4+x,3/4-z,1/4-y
8 1/4-y,1/4+x,3/4-z
9 -x,1/2+y,1/2-z
10 -z,1/2-x,y
11 1/4+y,1/4+x,1/4+z
12 1/4-x,1/4+z,3/4-y
13 z,-x,1/2-y
14 1/4-x,3/4-z,3/4+y
15 -z,1/2+x,1/2-y
16 1/4+x,1/4+z,1/4+y
17 1/4-z,1/4+y,3/4-x
18 y,z,x
19 1/4+z,3/4-y,1/4-x
20 -y,1/2-z,x
21 1/4-z,3/4-y,3/4+x
22 -y,1/2+z,1/2-x
23 1/4+z,1/4+y,1/4+x
24 y,-z,1/2-x
25 1/2+x,1/2+y,1/2+z
26 3/4+y,1/4-x,3/4-z
27 1/2+x,1/2-y,-z
28 1/2+z,1/2+x,1/2+y
29 1/2-x,-y,1/2+z
30 3/4-y,1/4-x,1/4+z
31 3/4+x,1/4-z,3/4-y
32 3/4-y,3/4+x,1/4-z
33 1/2-x,y,-z
34 1/2-z,-x,1/2+y
35 3/4+y,3/4+x,3/4+z
36 3/4-x,3/4+z,1/4-y
37 1/2+z,1/2-x,-y
38 3/4-x,1/4-z,1/4+y
39 1/2-z,x,-y
40 3/4+x,3/4+z,3/4+y
41 3/4-z,3/4+y,1/4-x
42 1/2+y,1/2+z,1/2+x
43 3/4+z,1/4-y,3/4-x
44 1/2-y,-z,1/2+x
45 3/4-z,1/4-y,1/4+x
46 1/2-y,z,-x
47 3/4+z,3/4+y,3/4+x
48 1/2+y,1/2-z,-x
loop_
_atom_site_type_symbol
_atom_site_label
_atom_site_fract_x
_atom_site_fract_y
_atom_site_fract_z
_atom_site_U_iso_or_equiv
_atom_site_adp_type
_atom_site_calc_flag
_atom_site_occupancy
Ca Ca 0.1432(3) 0 0.25 0.0172(9) Uani d 0.875(3)
Al Al1 0.01880(13) 0.01880(13) 0.01880(13) 0.0091(5) Uani d 1
Al Al2 0.875 0 0.25 0.0071(9) Uani d 1
O O1 0.78672(10) 0.09946(10) 0.30708(9) 0.0138(4) Uani d 1
O O2 -0.06481(9) -0.06481(9) -0.06481(9) 0.0151(3) Uani d 1
O O3 0.375 0 0.25 0.036(3) Uiso d 0.251(6)
Ca Cas 0.1867(19) 0 0.25 0.019(5) Uiso d 0.125(3)
loop_
_atom_site_aniso_label
_atom_site_aniso_U_11
_atom_site_aniso_U_22
_atom_site_aniso_U_33
_atom_site_aniso_U_12
_atom_site_aniso_U_13
_atom_site_aniso_U_23
_atom_site_aniso_type_symbol
Ca 0.032(2) 0.0082(12) 0.0111(12) 0 0 0.0010(9) Ca
Al1 0.0091(8) 0.0091(8) 0.0091(8) -0.0003(7) -0.0003(7) -0.0003(7) Al
Al2 0.003(2) 0.0090(12) 0.0090(12) 0 0 0 Al
O1 0.0144(7) 0.0146(6) 0.0123(6) 0.0077(4) 0.0041(4) 0.0011(5) O
O2 0.0151(4) 0.0151(4) 0.0151(4) -0.0023(5) -0.0023(5) -0.0023(5) O
loop_
_atom_type_symbol
_atom_type_scat_source
Ca International_Tables_Vol_C
Al International_Tables_Vol_C
O International_Tables_Vol_C
loop_
_geom_angle_atom_site_label_1
_geom_angle_atom_site_label_2
_geom_angle_atom_site_label_3
_geom_angle_site_symmetry_1
_geom_angle_site_symmetry_3
_geom_angle
_geom_angle_publ_flag
O1 Ca O1 6_554 8_545 175.71(15) yes
O1 Ca O1 6_554 36_545 67.91(6) yes
O1 Ca O1 6_554 38_555 116.06(10) yes
O1 Ca O2 6_554 2_545 97.86(4) yes
O1 Ca O2 6_554 11_555 81.23(4) yes
O1 Ca O3 6_554 . 87.85(8) yes
O1 Ca Cas 6_554 . 87.85(8) yes
O1 Ca O1 8_545 6_554 175.71(15) yes
O1 Ca O1 8_545 36_545 116.06(10) yes
O1 Ca O1 8_545 38_555 67.91(6) yes
O1 Ca O2 8_545 2_545 81.23(4) yes
O1 Ca O2 8_545 11_555 97.86(4) yes
O1 Ca O3 8_545 . 87.85(8) yes
O1 Ca Cas 8_545 . 87.85(8) yes
O1 Ca O1 36_545 6_554 67.91(6) yes
O1 Ca O1 36_545 8_545 116.06(10) yes
O1 Ca O1 36_545 38_555 65.03(8) yes
O1 Ca O2 36_545 2_545 125.03(9) yes
O1 Ca O2 36_545 11_555 77.23(5) yes
O1 Ca O3 36_545 . 147.48(5) yes
O1 Ca Cas 36_545 . 147.48(5) yes
O1 Ca O1 38_555 6_554 116.06(10) yes
O1 Ca O1 38_555 8_545 67.91(6) yes
O1 Ca O1 38_555 36_545 65.03(8) yes
O1 Ca O2 38_555 2_545 77.23(5) yes
O1 Ca O2 38_555 11_555 125.03(9) yes
O1 Ca O3 38_555 . 147.48(5) yes
O1 Ca Cas 38_555 . 147.48(5) yes
O2 Ca O2 2_545 11_555 155.83(15) yes
O2 Ca O3 2_545 . 77.91(8) yes
O2 Ca Cas 2_545 . 77.91(8) yes
O2 Ca O2 11_555 2_545 155.83(15) yes
O2 Ca O3 11_555 . 77.91(8) yes
O2 Ca Cas 11_555 . 77.91(8) yes
O3 Ca Cas . . 0 yes
O1 Al1 O1 6_554 36_545 101.58(9) yes
O1 Al1 O1 6_554 43_455 101.58(9) yes
O1 Al1 O2 6_554 . 116.53(10) yes
O1 Al1 O1 36_545 6_554 101.58(9) yes
O1 Al1 O1 36_545 43_455 101.58(9) yes
O1 Al1 O2 36_545 . 116.53(10) yes
O1 Al1 O1 43_455 6_554 101.58(9) yes
O1 Al1 O1 43_455 36_545 101.58(9) yes
O1 Al1 O2 43_455 . 116.53(10) yes
O1 Al2 O1 . 3_555 104.82(5) yes
O1 Al2 O1 . 36_645 111.84(5) yes
O1 Al2 O1 . 38_655 111.84(5) yes
O1 Al2 O1 3_555 . 104.82(5) yes
O1 Al2 O1 3_555 36_645 111.84(5) yes
O1 Al2 O1 3_555 38_655 111.84(5) yes
O1 Al2 O1 36_645 . 111.84(5) yes
O1 Al2 O1 36_645 3_555 111.84(5) yes
O1 Al2 O1 36_645 38_655 104.82(5) yes
O1 Al2 O1 38_655 . 111.84(5) yes
O1 Al2 O1 38_655 3_555 111.84(5) yes
O1 Al2 O1 38_655 36_645 104.82(5) yes
Ca O1 Ca 26_555 36_545 97.04(6) yes
Ca O1 Al1 26_555 30_555 98.66(10) yes
Ca O1 Al2 26_555 . 121.79(8) yes
Ca O1 O1 26_555 3_555 121.40(9) yes
Ca O1 O1 26_555 36_645 141.74(6) yes
Ca O1 O1 26_555 38_655 89.34(6) yes
Ca O1 O1 26_555 15_645 59.53(8) yes
Ca O1 O1 26_555 48_556 103.51(6) yes
Ca O1 O2 26_555 30_555 117.98(9) yes
Ca O1 Cas 26_555 26_555 12.6(5) yes
Ca O1 Ca 36_545 26_555 97.04(6) yes
Ca O1 Al1 36_545 30_555 91.69(7) yes
Ca O1 Al2 36_545 . 95.07(6) yes
Ca O1 O1 36_545 3_555 57.48(5) yes
Ca O1 O1 36_545 36_645 111.34(5) yes
Ca O1 O1 36_545 38_655 111.34(6) yes
Ca O1 O1 36_545 15_645 98.33(6) yes
Ca O1 O1 36_545 48_556 52.56(4) yes
Ca O1 O2 36_545 30_555 111.55(5) yes
Ca O1 Cas 36_545 26_555 91.1(3) yes
Al1 O1 Al2 30_555 . 137.61(8) yes
Al1 O1 O1 30_555 3_555 130.04(8) yes
Al1 O1 O1 30_555 36_645 105.35(7) yes
Al1 O1 O1 30_555 38_655 154.59(8) yes
Al1 O1 O1 30_555 15_645 39.21(6) yes
Al1 O1 O1 30_555 48_556 39.21(6) yes
Al1 O1 O2 30_555 30_555 31.35(6) yes
Al1 O1 Cas 30_555 26_555 110.0(5) yes
Al2 O1 O1 . 3_555 37.59(3) yes
Al2 O1 O1 . 36_645 34.08(3) yes
Al2 O1 O1 . 38_655 34.08(3) yes
Al2 O1 O1 . 15_645 166.26(7) yes
Al2 O1 O1 . 48_556 128.08(6) yes
Al2 O1 O2 . 30_555 109.42(5) yes
Al2 O1 Cas . 26_555 111.6(4) yes
O1 O1 O1 3_555 36_645 61.42(4) yes
O1 O1 O1 3_555 38_655 61.42(4) yes
O1 O1 O1 3_555 15_645 155.64(6) yes
O1 O1 O1 3_555 48_556 98.62(5) yes
O1 O1 O2 3_555 30_555 120.42(5) yes
O1 O1 Cas 3_555 26_555 108.9(5) yes
O1 O1 O1 36_645 3_555 61.42(4) yes
O1 O1 O1 36_645 38_655 57.16(4) yes
O1 O1 O1 36_645 15_645 135.37(5) yes
O1 O1 O1 36_645 48_556 113.97(5) yes
O1 O1 O2 36_645 30_555 75.54(4) yes
O1 O1 Cas 36_645 26_555 137.2(3) yes
O1 O1 O1 38_655 3_555 61.42(4) yes
O1 O1 O1 38_655 36_645 57.16(4) yes
O1 O1 O1 38_655 15_645 139.67(5) yes
O1 O1 O1 38_655 48_556 160.00(6) yes
O1 O1 O2 38_655 30_555 124.62(5) yes
O1 O1 Cas 38_655 26_555 81.2(3) yes
O1 O1 O1 15_645 3_555 155.64(6) yes
O1 O1 O1 15_645 36_645 135.37(5) yes
O1 O1 O1 15_645 38_655 139.67(5) yes
O1 O1 O1 15_645 48_556 60.00(4) yes
O1 O1 O2 15_645 30_555 62.58(4) yes
O1 O1 Cas 15_645 26_555 71.3(5) yes
O1 O1 O1 48_556 3_555 98.62(5) yes
O1 O1 O1 48_556 36_645 113.97(5) yes
O1 O1 O1 48_556 38_655 160.00(6) yes
O1 O1 O1 48_556 15_645 60.00(4) yes
O1 O1 O2 48_556 30_555 62.58(4) yes
O1 O1 Cas 48_556 26_555 108.6(2) yes
O2 O1 Cas 30_555 26_555 130.6(5) yes
Ca O2 Ca 31_454 32_445 99.93(8) yes
Ca O2 Ca 31_454 21_544 99.93(8) yes
Ca O2 Al1 31_454 . 117.86(8) yes
Ca O2 O1 31_454 6_554 126.61(8) yes
Ca O2 O1 31_454 36_545 131.58(5) yes
Ca O2 O1 31_454 43_455 85.83(5) yes
Ca O2 Cas 31_454 31_454 12.5(6) yes
Ca O2 Cas 31_454 32_445 96.0(2) yes
Ca O2 Cas 31_454 21_544 112.4(5) yes
Ca O2 Ca 32_445 31_454 99.93(8) yes
Ca O2 Ca 32_445 21_544 99.93(8) yes
Ca O2 Al1 32_445 . 117.86(8) yes
Ca O2 O1 32_445 6_554 131.58(5) yes
Ca O2 O1 32_445 36_545 85.83(5) yes
Ca O2 O1 32_445 43_455 126.61(8) yes
Ca O2 Cas 32_445 31_454 112.4(5) yes
Ca O2 Cas 32_445 32_445 12.5(6) yes
Ca O2 Cas 32_445 21_544 96.0(2) yes
Ca O2 Ca 21_544 31_454 99.93(8) yes
Ca O2 Ca 21_544 32_445 99.93(8) yes
Ca O2 Al1 21_544 . 117.86(8) yes
Ca O2 O1 21_544 6_554 85.83(5) yes
Ca O2 O1 21_544 36_545 126.61(8) yes
Ca O2 O1 21_544 43_455 131.58(5) yes
Ca O2 Cas 21_544 31_454 96.0(2) yes
Ca O2 Cas 21_544 32_445 112.4(5) yes
Ca O2 Cas 21_544 21_544 12.5(6) yes
Al1 O2 O1 . 6_554 32.12(6) yes
Al1 O2 O1 . 36_545 32.12(6) yes
Al1 O2 O1 . 43_455 32.12(6) yes
Al1 O2 Cas . 31_454 110.5(3) yes
Al1 O2 Cas . 32_445 110.5(3) yes
Al1 O2 Cas . 21_544 110.5(3) yes
O1 O2 O1 6_554 36_545 54.83(4) yes
O1 O2 O1 6_554 43_455 54.83(4) yes
O1 O2 Cas 6_554 31_454 114.7(5) yes
O1 O2 Cas 6_554 32_445 130.81(10) yes
O1 O2 Cas 6_554 21_544 79.5(3) yes
O1 O2 O1 36_545 6_554 54.83(4) yes
O1 O2 O1 36_545 43_455 54.83(4) yes
O1 O2 Cas 36_545 31_454 130.81(10) yes
O1 O2 Cas 36_545 32_445 79.5(3) yes
O1 O2 Cas 36_545 21_544 114.7(5) yes
O1 O2 O1 43_455 6_554 54.83(4) yes
O1 O2 O1 43_455 36_545 54.83(4) yes
O1 O2 Cas 43_455 31_454 79.5(3) yes
O1 O2 Cas 43_455 32_445 114.7(5) yes
O1 O2 Cas 43_455 21_544 130.81(10) yes
Cas O2 Cas 31_454 32_445 108.4(6) yes
Cas O2 Cas 31_454 21_544 108.4(6) yes
Cas O2 Cas 32_445 31_454 108.4(6) yes
Cas O2 Cas 32_445 21_544 108.4(6) yes
Cas O2 Cas 21_544 31_454 108.4(6) yes
Cas O2 Cas 21_544 32_445 108.4(6) yes
Ca O3 Ca . 36_545 180 yes
Ca O3 Cas . . 0 yes
Ca O3 Cas . 36_545 180 yes
Ca O3 Ca 36_545 . 180 yes
Ca O3 Cas 36_545 . 180 yes
Ca O3 Cas 36_545 36_545 0 yes
Cas O3 Cas . 36_545 180 yes
Cas O3 Cas 36_545 . 180 yes
Ca Cas O1 . 6_554 79.6(5) yes
Ca Cas O1 . 8_545 79.6(5) yes
Ca Cas O2 . 2_545 89.6(6) yes
Ca Cas O2 . 11_555 89.6(6) yes
Ca Cas O3 . . 180 yes
O1 Cas O1 6_554 8_545 159.1(11) yes
O1 Cas O2 6_554 2_545 98.29(13) yes
O1 Cas O2 6_554 11_555 81.55(10) yes
O1 Cas O3 6_554 . 100.4(5) yes
O1 Cas O1 8_545 6_554 159.1(11) yes
O1 Cas O2 8_545 2_545 81.55(10) yes
O1 Cas O2 8_545 11_555 98.29(13) yes
O1 Cas O3 8_545 . 100.4(5) yes
O2 Cas O2 2_545 11_555 179.1(11) yes
O2 Cas O3 2_545 . 90.4(6) yes
O2 Cas O2 11_555 2_545 179.1(11) yes
O2 Cas O3 11_555 . 90.4(6) yes
loop_
_geom_bond_atom_site_label_1
_geom_bond_atom_site_label_2
_geom_bond_site_symmetry_2
_geom_bond_distance
_geom_bond_publ_flag
Ca O1 6_554 2.3542(11) yes
Ca O1 8_545 2.3542(11) yes
Ca O1 36_545 2.556(3) yes
Ca O1 38_555 2.556(3) yes
Ca O2 2_545 2.4037(13) yes
Ca O2 11_555 2.4037(13) yes
Ca O3 . 2.777(3) yes
Ca Cas . 0.52(2) yes
Al1 O1 6_554 1.7729(19) yes
Al1 O1 36_545 1.7729(19) yes
Al1 O1 43_455 1.7729(19) yes
Al1 O2 . 1.7348(19) yes
Al2 O1 . 1.7337(11) yes
Al2 O1 3_555 1.7337(11) yes
Al2 O1 36_645 1.7337(11) yes
Al2 O1 38_655 1.7337(11) yes
O1 O1 3_555 2.7476(16) yes
O1 O1 36_645 2.8719(16) yes
O1 O1 38_655 2.8719(16) yes
O1 O1 15_645 2.7474(16) yes
O1 O1 48_556 2.7474(16) yes
O1 O2 30_555 2.9833(16) yes
O1 Cas 26_555 2.392(4) yes
O2 Cas 31_454 2.3505(11) yes
O2 Cas 32_445 2.3505(11) yes
O2 Cas 21_544 2.3505(11) yes
O3 Cas . 2.26(2) yes
O3 Cas 36_545 2.26(2) yes
