#------------------------------------------------------------------------------
#$Date: 2016-02-14 16:26:36 +0200 (Sun, 14 Feb 2016) $
#$Revision: 176435 $
#$URL: svn://www.crystallography.net/cod/cif/2/10/37/2103772.cif $
#------------------------------------------------------------------------------
#
# This file is available in the Crystallography Open Database (COD),
# http://www.crystallography.net/. The original data for this entry
# were provided by IUCr Journals, http://journals.iucr.org/.
#
# The file may be used within the scientific community so long as
# proper attribution is given to the journal article from which the
# data were obtained.
#
data_2103772
loop_
_publ_author_name
'Friedrich, Alexandra'
'Kunz, Martin'
'Suard, Emmanuelle'
_publ_section_title
;
 Temperature-dependent neutron powder diffraction study of the
 Ba(OD)~2~ polymorphs: a new low-temperature phase
;
_journal_issue                   6
_journal_name_full               'Acta Crystallographica Section B'
_journal_page_first              747
_journal_page_last               758
_journal_paper_doi               10.1107/S0108768101013647
_journal_volume                  57
_journal_year                    2001
_chemical_formula_iupac          'Ba (O D)2'
_chemical_formula_moiety         'Ba, 2(O D)'
_chemical_formula_structural     'Ba (O D)2'
_chemical_formula_sum            'Ba D2 O2'
_chemical_formula_weight         1386.928
_chemical_name_systematic
;
deuterated barium hydroxide
;
_space_group_IT_number           14
_symmetry_cell_setting           monoclinic
_symmetry_space_group_name_Hall  '-P 2yn'
_symmetry_space_group_name_H-M   'P 1 21/n 1'
_cell_angle_alpha                90.0
_cell_angle_beta                 95.7570(9)
_cell_angle_gamma                90.0
_cell_formula_units_Z            8
_cell_length_a                   9.40841(16)
_cell_length_b                   7.90854(13)
_cell_length_c                   6.77476(10)
_cell_measurement_temperature    300
_cell_volume                     501.546(14)
_computing_cell_refinement       'GSAS (Larson and Von Dreele, 1994)'
_computing_data_reduction        GSAS
_computing_molecular_graphics
'Crystal Maker, version 4.0.1 (Palmer, D.C., 1994-99)'
_computing_publication_material  GSAS
_computing_structure_refinement  GSAS
_diffrn_measurement_device_type  'diffractometer D 2B, ILL'
_diffrn_radiation_probe          neutron
_diffrn_radiation_source         'high-flux isotope reactor'
_diffrn_radiation_type           neutron
_diffrn_radiation_wavelength     1.59432
_refine_ls_extinction_method     none
_refine_ls_goodness_of_fit_all   1.57
_refine_ls_number_parameters     66
_refine_ls_structure_factor_coef rietveld
_reflns_number_gt                1018
_cod_data_source_file            os0074.cif
_cod_data_source_block           b300
_cod_original_cell_volume        501.550(10)
_cod_original_sg_symbol_H-M      'P 21/n'
_cod_original_formula_sum        'D2 O2 Ba1'
_cod_database_code               2103772
loop_
_symmetry_equiv_pos_as_xyz
+x,+y,+z
-x+1/2,+y+1/2,-z+1/2
-x,-y,-z
+x+1/2,-y+1/2,+z+1/2
loop_
_atom_site_label
_atom_site_fract_x
_atom_site_fract_y
_atom_site_fract_z
_atom_site_U_iso_or_equiv
_atom_site_thermal_displace_type
_atom_site_occupancy
Ba1 .6018(2) .6396(3) .2519(3) .01118 Uiso 1.0
Ba2 .1810(2) .5475(3) .2158(3) .01107 Uiso 1.0
O1 .8825(2) .4866(3) .1772(3) .01412 Uiso 1.0
O2 .4108(2) .3594(3) .1444(3) .01489 Uiso 1.0
O3 .6068(2) .3462(3) .4953(3) .01646 Uiso 1.0
O4 .1662(2) .2960(3) .4646(3) .01832 Uiso 1.0
D1 .8844(2) .5299(3) .3101(4) .03572 Uiso 1.0
D2 .4697(2) .3494(3) .2702(3) .02604 Uiso 1.0
D3 .6249(2) .2383(3) .4424(3) .03261 Uiso 1.0
D4 .1041(3) .2444(3) .5505(4) .03568 Uiso 1.0
loop_
_atom_type_symbol
_atom_type_description
_atom_type_scat_source
Ba Ba 'Koster & Yelon (1982), Neutron Diffraction Newsletter'
O O 'Koster & Yelon (1982), Neutron Diffraction Newsletter'
D D 'Koster & Yelon (1982), Neutron Diffraction Newsletter'
