#------------------------------------------------------------------------------
#$Date: 2016-02-20 02:53:41 +0200 (Sat, 20 Feb 2016) $
#$Revision: 176768 $
#$URL: svn://www.crystallography.net/cod/cif/2/10/41/2104150.cif $
#------------------------------------------------------------------------------
#
# This file is available in the Crystallography Open Database (COD),
# http://www.crystallography.net/. The original data for this entry
# were provided by IUCr Journals, http://journals.iucr.org/.
#
# The file may be used within the scientific community so long as
# proper attribution is given to the journal article from which the
# data were obtained.
#
data_2104150
loop_
_publ_author_name
'Redhammer, G\"unther J.'
'Roth, Georg'
'Amthauer, Georg'
'Lottermoser, Werner'
_publ_section_title
;
 On the crystal chemistry of olivine-type germanate compounds,
 Ca~1+<i>x~</i><i>M</i>~1{-~<i>x</i>}GeO~4~ (<i>M</i>^2+^ = Ca, Mg, Co,
 Mn)
;
_journal_coeditor_code           WS5059
_journal_issue                   3
_journal_name_full               'Acta Crystallographica Section B'
_journal_page_first              261
_journal_page_last               271
_journal_paper_doi               10.1107/S0108768108010434
_journal_volume                  64
_journal_year                    2008
_chemical_formula_sum            'Ca1.11 Co0.89 Ge O4'
_chemical_formula_weight         233.55
_space_group_crystal_system      orthorhombic
_space_group_IT_number           62
_space_group_name_Hall           '-P 2ac 2n'
_space_group_name_H-M_alt        'P n m a'
_symmetry_space_group_name_Hall  '-P 2ac 2n'
_symmetry_space_group_name_H-M   'P n m a'
_audit_creation_method           'WinGX routine CIF_UPDATE'
_cell_angle_alpha                90
_cell_angle_beta                 90
_cell_angle_gamma                90
_cell_formula_units_Z            4
_cell_length_a                   11.2923(7)
_cell_length_b                   6.4369(4)
_cell_length_c                   5.0246(3)
_cell_measurement_reflns_used    3980
_cell_measurement_temperature    295(2)
_cell_measurement_theta_max      28.7
_cell_measurement_theta_min      3.61
_cell_volume                     365.23(4)
_computing_cell_refinement       'Bruker SAINT+ (Bruker, 2001)'
_computing_data_collection       'Bruker SMART+ (Bruker, 2001)'
_computing_data_reduction        'Bruker SAINT+ (Bruker, 2001)'
_computing_molecular_graphics    'Diamonds 3.0 (Pennington,1999)'
_computing_publication_material  'WinGX v1.70.01 (Farrugia 1999)'
_computing_structure_refinement  'SHELXL-97 (Sheldrick, 1997)'
_computing_structure_solution    'SHELXS-97 (Sheldrick, 1997)'
_diffrn_measured_fraction_theta_full 0.964
_diffrn_measured_fraction_theta_max 0.964
_diffrn_measurement_device       '3-circle diffractometer'
_diffrn_measurement_device_type  'SMART APEX'
_diffrn_measurement_method
'rotation, \w-scans at 4 different \f positions'
_diffrn_radiation_type           MoK\a
_diffrn_radiation_wavelength     0.71073
_diffrn_reflns_av_R_equivalents  0.0382
_diffrn_reflns_limit_h_max       15
_diffrn_reflns_limit_h_min       -15
_diffrn_reflns_limit_k_max       8
_diffrn_reflns_limit_k_min       -8
_diffrn_reflns_limit_l_max       6
_diffrn_reflns_limit_l_min       -6
_diffrn_reflns_number            4343
_diffrn_reflns_theta_full        29.55
_diffrn_reflns_theta_max         29.55
_diffrn_reflns_theta_min         3.61
_diffrn_standards_decay_%        0
_diffrn_standards_interval_count 0
_diffrn_standards_interval_time  0
_diffrn_standards_number         0
_exptl_absorpt_coefficient_mu    13.702
_exptl_absorpt_correction_T_max  0.25
_exptl_absorpt_correction_T_min  0.13
_exptl_absorpt_correction_type   numerical
_exptl_absorpt_process_details
'via equivalents using X-SHAPE (Stoe & Cie 1996)'
_exptl_crystal_colour            pink
_exptl_crystal_density_diffrn    4.247
_exptl_crystal_density_method    'not measured'
_exptl_crystal_description       cuboid
_exptl_crystal_F_000             440.9
_exptl_crystal_size_max          0.14
_exptl_crystal_size_mid          0.14
_exptl_crystal_size_min          0.10
_refine_diff_density_max         0.701
_refine_diff_density_min         -0.617
_refine_ls_extinction_method     none
_refine_ls_goodness_of_fit_ref   1.146
_refine_ls_hydrogen_treatment    noref
_refine_ls_matrix_type           full
_refine_ls_number_parameters     43
_refine_ls_number_reflns         530
_refine_ls_number_restraints     1
_refine_ls_restrained_S_all      1.145
_refine_ls_R_factor_gt           0.0199
_refine_ls_shift/su_max          0
_refine_ls_structure_factor_coef Fsqd
_refine_ls_weighting_details
'calc w=1/[\s^2^(Fo^2^)+(0.0260P)^2^+0.2316P] where P=(Fo^2^+2Fc^2^)/3'
_refine_ls_weighting_scheme      calc
_refine_ls_wR_factor_ref         0.047
_reflns_number_gt                516
_reflns_number_total             530
_reflns_threshold_expression     >2sigma(I)
_cod_data_source_file            ws5059.cif
_cod_data_source_block           caco_a2
_cod_database_code               2104150
_cod_database_fobs_code          2104150
loop_
_symmetry_equiv_pos_as_xyz
'x, y, z'
'-x+1/2, -y, z+1/2'
'x+1/2, -y+1/2, -z+1/2'
'-x, y+1/2, -z'
'-x, -y, -z'
'x-1/2, y, -z-1/2'
'-x-1/2, y-1/2, z-1/2'
'x, -y-1/2, z'
loop_
_atom_site_type_symbol
_atom_site_label
_atom_site_fract_x
_atom_site_fract_y
_atom_site_fract_z
_atom_site_U_iso_or_equiv
_atom_site_adp_type
_atom_site_calc_flag
_atom_site_refinement_flags
_atom_site_occupancy
Ge Ge1 -0.41832(3) 0.25 0.07672(7) 0.01088(14) Uani d S 1
Co Co1 -0.5 0 0.5 0.01129(15) Uani d SP 0.89
Ca Ca1 -0.5 0 0.5 0.01129(15) Uani d SP 0.11
Ca Ca2 -0.22571(6) 0.25 0.51182(13) 0.01147(17) Uani d S 1
O O1 -0.41872(19) 0.25 -0.2705(5) 0.0145(5) Uani d S 1
O O2 -0.55598(19) 0.25 0.2472(5) 0.0141(5) Uani d S 1
O O3 -0.35015(14) 0.0347(3) 0.2283(3) 0.0140(3) Uani d . 1
loop_
_atom_site_aniso_label
_atom_site_aniso_U_11
_atom_site_aniso_U_22
_atom_site_aniso_U_33
_atom_site_aniso_U_12
_atom_site_aniso_U_13
_atom_site_aniso_U_23
Ge1 0.0120(2) 0.0120(2) 0.0087(2) 0 -0.00003(11) 0
Co1 0.0125(2) 0.0114(2) 0.0099(3) -0.00141(16) 0.00046(16) 0.00137(16)
Ca1 0.0125(2) 0.0114(2) 0.0099(3) -0.00141(16) 0.00046(16) 0.00137(16)
Ca2 0.0109(3) 0.0114(3) 0.0121(3) 0 -0.0003(2) 0
O1 0.0164(11) 0.0185(12) 0.0085(11) 0 0.0008(8) 0
O2 0.0115(10) 0.0180(12) 0.0128(11) 0 -0.0003(9) 0
O3 0.0157(8) 0.0124(8) 0.0138(8) 0.0022(6) -0.0010(6) 0.0003(6)
loop_
_atom_type_symbol
_atom_type_description
_atom_type_scat_dispersion_real
_atom_type_scat_dispersion_imag
_atom_type_scat_source
O O 0.0106 0.006 'International Tables Vol C Tables 4.2.6.8 and 6.1.1.4'
Ca Ca 0.2262 0.3064 'International Tables Vol C Tables 4.2.6.8 and 6.1.1.4'
Ge Ge 0.1547 1.8001 'International Tables Vol C Tables 4.2.6.8 and 6.1.1.4'
Co Co 0.3494 0.9721 'International Tables Vol C Tables 4.2.6.8 and 6.1.1.4'
loop_
_geom_angle_atom_site_label_1
_geom_angle_atom_site_label_2
_geom_angle_atom_site_label_3
_geom_angle_site_symmetry_1
_geom_angle_site_symmetry_3
_geom_angle
O1 Ge1 O3 . 8_565 115.72(7)
O1 Ge1 O3 . . 115.72(7)
O3 Ge1 O3 8_565 . 104.02(11)
O1 Ge1 O2 . . 118.71(10)
O3 Ge1 O2 8_565 . 100.04(7)
O3 Ge1 O2 . . 100.04(7)
O2 Co1 O2 5_456 . 180
O2 Co1 O1 5_456 1_556 96.68(7)
O2 Co1 O1 . 1_556 83.32(7)
O2 Co1 O1 5_456 5_455 83.32(7)
O2 Co1 O1 . 5_455 96.68(7)
O1 Co1 O1 1_556 5_455 180.00(10)
O2 Co1 O3 5_456 . 102.61(8)
O2 Co1 O3 . . 77.39(8)
O1 Co1 O3 1_556 . 85.94(8)
O1 Co1 O3 5_455 . 94.06(7)
O2 Co1 O3 5_456 5_456 77.39(8)
O2 Co1 O3 . 5_456 102.61(8)
O1 Co1 O3 1_556 5_456 94.06(7)
O1 Co1 O3 5_455 5_456 85.94(7)
O3 Co1 O3 . 5_456 180.00(5)
O3 Ca2 O3 7_566 2_455 105.85(9)
O3 Ca2 O2 7_566 6_656 87.56(6)
O3 Ca2 O2 2_455 6_656 87.56(6)
O3 Ca2 O3 7_566 . 161.23(7)
O3 Ca2 O3 2_455 . 92.19(4)
O2 Ca2 O3 6_656 . 98.56(7)
O3 Ca2 O3 7_566 8_565 92.19(4)
O3 Ca2 O3 2_455 8_565 161.23(7)
O2 Ca2 O3 6_656 8_565 98.56(7)
O3 Ca2 O3 . 8_565 69.42(8)
O3 Ca2 O1 7_566 1_556 96.95(6)
O3 Ca2 O1 2_455 1_556 96.95(6)
O2 Ca2 O1 6_656 1_556 172.47(9)
O3 Ca2 O1 . 1_556 75.32(6)
O3 Ca2 O1 8_565 1_556 75.32(6)
loop_
_geom_bond_atom_site_label_1
_geom_bond_atom_site_label_2
_geom_bond_site_symmetry_2
_geom_bond_distance
Ge1 O1 . 1.745(3)
Ge1 O3 8_565 1.7589(17)
Ge1 O3 . 1.7589(17)
Ge1 O2 . 1.775(2)
Co1 O2 5_456 2.1453(16)
Co1 O2 . 2.1453(16)
Co1 O1 1_556 2.1822(16)
Co1 O1 5_455 2.1822(16)
Co1 O3 . 2.1857(16)
Co1 O3 5_456 2.1857(16)
Ca2 O3 7_566 2.2965(17)
Ca2 O3 2_455 2.2965(17)
Ca2 O2 6_656 2.317(2)
Ca2 O3 . 2.4344(18)
Ca2 O3 8_565 2.4344(18)
Ca2 O1 1_556 2.439(2)
