#------------------------------------------------------------------------------
#$Date: 2016-02-20 02:53:41 +0200 (Sat, 20 Feb 2016) $
#$Revision: 176768 $
#$URL: svn://www.crystallography.net/cod/cif/2/10/41/2104121.cif $
#------------------------------------------------------------------------------
#
# This file is available in the Crystallography Open Database (COD),
# http://www.crystallography.net/. The original data for this entry
# were provided by IUCr Journals, http://journals.iucr.org/.
#
# The file may be used within the scientific community so long as
# proper attribution is given to the journal article from which the
# data were obtained.
#
data_2104121
loop_
_publ_author_name
'Yang, J.'
_publ_section_title
;
 Structural analysis of perovskite LaCr~1{-~<i>x</i>}Ni~<i>x~</i>O~3~
 by Rietveld refinement of X-ray powder diffraction data
;
_journal_coeditor_code           BP5009
_journal_issue                   3
_journal_name_full               'Acta Crystallographica Section B'
_journal_page_first              281
_journal_page_last               286
_journal_paper_doi               10.1107/S0108768108005739
_journal_volume                  64
_journal_year                    2008
_chemical_formula_moiety         'Cr La O3'
_chemical_formula_sum            'Cr La O3'
_chemical_formula_weight         238.90
_chemical_name_common            'Lanthanum Chromium trioxide'
_space_group_crystal_system      orthorhombic
_space_group_IT_number           62
_space_group_name_Hall           '-P 2c 2ab'
_space_group_name_H-M_alt        'P b n m'
_symmetry_space_group_name_Hall  '-P 2c 2ab'
_symmetry_space_group_name_H-M   'P b n m'
_cell_angle_alpha                90
_cell_angle_beta                 90
_cell_angle_gamma                90
_cell_formula_units_Z            4
_cell_length_a                   5.51330(10)
_cell_length_b                   5.4759(6)
_cell_length_c                   7.7585(9)
_cell_measurement_temperature    298
_cell_volume                     234.23(4)
_computing_cell_refinement       'X'Pert PRO MPD (Philips, 2003)'
_computing_data_collection       'X'Pert PRO MPD (Philips, 2003)'
_computing_data_reduction        'X'Pert PRO MPD (Philips, 2003)'
_computing_molecular_graphics    'Rietica (Hunter, 1997)'
_computing_structure_refinement  'Rietica (Hunter, 1997)'
_computing_structure_solution    'Rietica (Hunter, 1997)'
_diffrn_ambient_temperature      298
_diffrn_measured_fraction_theta_full 0.996
_diffrn_measurement_device_type  'Philips X'Pert PRO'
_diffrn_radiation_monochromator  Graphite
_diffrn_radiation_source         'Philips high intensity ceramic sealed tube'
_diffrn_radiation_type           CuK\a
_diffrn_radiation_wavelength     1.54176
_diffrn_reflns_limit_h_max       7
_diffrn_reflns_limit_h_min       -7
_diffrn_reflns_limit_k_max       7
_diffrn_reflns_limit_k_min       -7
_diffrn_reflns_limit_l_max       10
_diffrn_reflns_limit_l_min       -10
_diffrn_reflns_theta_full        80
_diffrn_standards_decay_%        0
_exptl_absorpt_correction_type   none
_exptl_crystal_density_diffrn    6.773
_exptl_crystal_density_method    'not measured'
_refine_ls_goodness_of_fit_all   0.0182
_refine_ls_number_constraints    0
_refine_ls_number_parameters     31
_refine_ls_number_restraints     0
_refine_ls_shift/su_max          0.0001
_refine_ls_shift/su_mean         0.0000
_refine_ls_weighting_details     'w = 1/[\s^2^(F)+0.0001F^2^]'
_refine_ls_weighting_scheme      sigma
_cod_data_source_file            bp5009.cif
_cod_data_source_block           LaCrO3
_cod_depositor_comments
;
The following automatic conversions were performed:
'_space_group_crystal_system' value 'Orthorhombic' changed to
'orthorhombic' according to
'/home/saulius/struct/CIF-dictionaries/cif_core.dic' dictionary named
'cif_core.dic' version 2.4.1 from 2010-06-29.

Automatic conversion script
Id: cif_fix_enum 1527 2010-12-29 10:47:43Z saulius 

The following automatic conversions were performed:

'_space_group_crystal_system' value 'Orthorhombic' changed to
'orthorhombic' according to
/home/saulius/struct/CIF-dictionaries/cif_core.dic dictionary named
'cif_core.dic' version 2.4.1 from 2010-06-29.

Automatic conversion script
Id: cif_fix_values 1715 2011-07-08 13:25:40Z adriana 
;
_cod_original_cell_volume        234.237(3)
_cod_database_code               2104121
loop_
_symmetry_equiv_pos_as_xyz
'x, y, z'
'-x, -y, z+1/2'
'x+1/2, -y+1/2, -z'
'-x+1/2, y+1/2, -z+1/2'
'-x, -y, -z'
'x, y, -z-1/2'
'-x-1/2, y-1/2, z'
'x-1/2, -y-1/2, z-1/2'
loop_
_atom_site_type_symbol
_atom_site_label
_atom_site_fract_x
_atom_site_fract_y
_atom_site_fract_z
_atom_site_U_iso_or_equiv
_atom_site_adp_type
_atom_site_occupancy
La La 0.4971(5) 0.0180(7) 0.25 0.6 Uiso 1.0
Cr Cr 0 0 0 0.6 Uiso 1.0
O O1 0.5594(3) 0.4993(6) 0.25 0.6 Uiso 1.0
O O2 0.22490(10) 0.2688(2) 0.0376(7) 0.6 Uiso 1.0
loop_
_atom_type_symbol
_atom_type_scat_dispersion_real
_atom_type_scat_dispersion_imag
_atom_type_scat_source
La -1.4094 9.0376 'International Tables Vol C Tables 4.2.6.8'
Cr -0.1635 2.4439 'International Tables Vol C Tables 4.2.6.8'
O 0.0492 0.0322 'International Tables Vol C Tables 4.2.6.8'
loop_
_geom_angle_atom_site_label_1
_geom_angle_atom_site_label_2
_geom_angle_atom_site_label_3
_geom_angle
Cr O1 Cr 160.82
Cr O2 Cr 160.23
loop_
_geom_bond_atom_site_label_1
_geom_bond_atom_site_label_2
_geom_bond_distance
Cr O1 4.555(2)
Cr O2 1.9466(12)
