#------------------------------------------------------------------------------
#$Date: 2016-02-14 06:40:26 +0200 (Sun, 14 Feb 2016) $
#$Revision: 176432 $
#$URL: svn://www.crystallography.net/cod/cif/2/10/43/2104360.cif $
#------------------------------------------------------------------------------
#
# This file is available in the Crystallography Open Database (COD),
# http://www.crystallography.net/. The original data for this entry
# were provided by IUCr Journals, http://journals.iucr.org/.
#
# The file may be used within the scientific community so long as
# proper attribution is given to the journal article from which the
# data were obtained.
#
data_2104360
loop_
_publ_author_name
'Friese, Karen'
'Kanke, Yasushi'
'Grzechnik, Andrzej'
_publ_section_title
;
 Characterization of the pressure-induced second-order phase transition
 in the mixed-valence vanadate BaV~6~O~11~
;
_journal_coeditor_code           EB5003
_journal_issue                   3
_journal_name_full               'Acta Crystallographica Section B'
_journal_page_first              326
_journal_page_last               333
_journal_paper_doi               10.1107/S010876810901444X
_journal_volume                  65
_journal_year                    2009
_chemical_formula_sum            'Ba O11 V6'
_chemical_formula_weight         619
_chemical_name_common            Bariumvandate
_chemical_name_systematic        ' ?'
_space_group_IT_number           186
_symmetry_cell_setting           hexagonal
_symmetry_space_group_name_Hall  'P 6c -2c'
_symmetry_space_group_name_H-M   'P 63 m c'
_cell_angle_alpha                90
_cell_angle_beta                 90
_cell_angle_gamma                120
_cell_formula_units_Z            2
_cell_length_a                   5.763(3)
_cell_length_b                   5.763(3)
_cell_length_c                   13.206(4)
_cell_measurement_reflns_used    656
_cell_measurement_temperature    293
_cell_measurement_theta_max      28.5
_cell_measurement_theta_min      3.08
_cell_volume                     379.8(3)
_computing_cell_refinement       X-Area
_computing_data_collection       X-Area
_computing_data_reduction        'Jana2006, Absorb V6.1'
_computing_publication_material
'Jana2006 (Petricek, Dusek & Palatinus, 2006)'
_computing_structure_refinement
'Jana2006 (Petricek, Dusek & Palatinus, 2006)'
_diffrn_ambient_temperature      293
_diffrn_measured_fraction_theta_full 0.86
_diffrn_radiation_source         'X-ray tube'
_diffrn_radiation_type           'Mo K\a'
_diffrn_radiation_wavelength     0.71073
_diffrn_reflns_av_R_equivalents  0.08
_diffrn_reflns_av_sigmaI/netI    0.1217
_diffrn_reflns_limit_h_max       6
_diffrn_reflns_limit_h_min       -6
_diffrn_reflns_limit_k_max       6
_diffrn_reflns_limit_k_min       -6
_diffrn_reflns_limit_l_max       17
_diffrn_reflns_limit_l_min       -16
_diffrn_reflns_number            1486
_diffrn_reflns_theta_full        25.72
_diffrn_reflns_theta_max         28.03
_diffrn_reflns_theta_min         3.09
_exptl_absorpt_coefficient_mu    12.220
_exptl_absorpt_correction_T_max  0.2192
_exptl_absorpt_correction_T_min  0.1728
_exptl_absorpt_correction_type   numerical
_exptl_absorpt_process_details
'Jana2006  (Petricek, Dusek & Palatinus, 2000)'
_exptl_crystal_colour            black
_exptl_crystal_density_diffrn    5.410(4)
_exptl_crystal_description       prismatic
_exptl_crystal_F_000             564
_exptl_crystal_size_max          0.1
_exptl_crystal_size_mid          0.08
_exptl_crystal_size_min          0.06
_refine_diff_density_max         0.89
_refine_diff_density_min         -0.85
_refine_ls_extinction_coef       0
_refine_ls_extinction_method
'B-C type 1 Gaussian isotropic (Becker & Coppens, 1974)'
_refine_ls_goodness_of_fit_ref   0.77
_refine_ls_number_constraints    5
_refine_ls_number_parameters     17
_refine_ls_number_reflns         283
_refine_ls_number_restraints     0
_refine_ls_R_factor_all          0.0757
_refine_ls_R_factor_gt           0.0274
_refine_ls_shift/su_max          0.0008
_refine_ls_shift/su_mean         0.0002
_refine_ls_structure_factor_coef F
_refine_ls_weighting_details     w=1/(\s^2^(F)+0.0001F^2^)
_refine_ls_weighting_scheme      sigma
_refine_ls_wR_factor_gt          0.0214
_refine_ls_wR_factor_ref         0.0266
_reflns_number_gt                140
_reflns_number_total             283
_reflns_threshold_expression     I>3\s(I)
_cod_data_source_file            eb5003.cif
_cod_data_source_block           IV
_cod_original_sg_symbol_Hall     'P 6c;-2c'
_cod_original_formula_sum        'Ba1 O11 V6'
_cod_database_code               2104360
loop_
_symmetry_equiv_pos_site_id
_symmetry_equiv_pos_as_xyz
1 x,y,z
2 -y,x-y,z
3 -x+y,-x,z
4 -x,-y,z+1/2
5 y,-x+y,z+1/2
6 x-y,x,z+1/2
7 -y,-x,z
8 -x+y,y,z
9 x,x-y,z
10 y,x,z+1/2
11 x-y,-y,z+1/2
12 -x,-x+y,z+1/2
loop_
_atom_site_type_symbol
_atom_site_label
_atom_site_fract_x
_atom_site_fract_y
_atom_site_fract_z
_atom_site_U_iso_or_equiv
_atom_site_adp_type
_atom_site_calc_flag
_atom_site_refinement_flags
_atom_site_occupancy
_atom_site_disorder_assembly
_atom_site_disorder_group
Ba Baa 0.333333 0.666667 0.25 0.0078(5) Uiso d . 1 . .
V V1a 0.4923(7) 0.9845(13) 0.5044(5) 0.0089(5) Uiso d . 1 . .
V V2a 0 0 0.3641(6) 0.0049(8) Uiso d . 1 . .
V V2b 0 0 0.1555(6) 0.0049(8) Uiso d . 1 . .
V V3a 0.333333 0.666667 0.7600(7) 0.0115(19) Uiso d . 1 . .
O O1a 0.1729(11) 0.346(2) 0.4200(4) 0.0116(13) Uiso d . 1 . .
O O1b 0.1729(11) 0.346(2) 0.0800(4) 0.0116(13) Uiso d . 1 . .
O O2a 0.1493(12) 0.299(2) 0.75 0.007(2) Uiso d . 1 . .
O O3a 0.333333 0.666667 0.9090(6) 0.009(3) Uiso d . 1 . .
O O3b 0.333333 0.666667 -0.4090(6) 0.009(3) Uiso d . 1 . .
loop_
_atom_site_aniso_label
_atom_site_aniso_U_11
_atom_site_aniso_U_22
_atom_site_aniso_U_33
_atom_site_aniso_U_12
_atom_site_aniso_U_13
_atom_site_aniso_U_23
_atom_site_aniso_type_symbol
? ? ? ? ? ? ? ?
loop_
_atom_type_symbol
_atom_type_scat_dispersion_real
_atom_type_scat_dispersion_imag
_atom_type_scat_source
Ba -0.324 2.282 'International Tables Vol C tables 4.2.6.8 and 6.1.1.1'
V 0.301 0.529 'International Tables Vol C tables 4.2.6.8 and 6.1.1.1'
O 0.011 0.006 'International Tables Vol C tables 4.2.6.8 and 6.1.1.1'
loop_
_diffrn_standard_refln_index_h
_diffrn_standard_refln_index_k
_diffrn_standard_refln_index_l
? ? ?
loop_
_geom_angle_atom_site_label_1
_geom_angle_atom_site_label_2
_geom_angle_atom_site_label_3
_geom_angle_site_symmetry_1
_geom_angle_site_symmetry_2
_geom_angle_site_symmetry_3
_geom_angle
_geom_angle_publ_flag
O1a V1a O1a 2_665 . 3_565 90.9(5) yes
O1a V1a O1b 2_665 . 5_565 174.3(6) yes
O1a V1a O1b 2_665 . 6_665 88.9(5) yes
O1a V1a O3a 2_665 . 4_674 89.5(4) yes
O1a V1a O3b 2_665 . 1_556 90.4(5) yes
O1a V1a O1b 3_565 . 5_565 88.9(5) yes
O1a V1a O1b 3_565 . 6_665 174.3(4) yes
O1a V1a O3a 3_565 . 4_674 89.5(3) yes
O1a V1a O3b 3_565 . 1_556 90.4(3) yes
O1b V1a O1b 5_565 . 6_665 90.6(5) yes
O1b V1a O3a 5_565 . 4_674 84.8(4) yes
O1b V1a O3b 5_565 . 1_556 95.2(4) yes
O1b V1a O3a 6_665 . 4_674 84.8(3) yes
O1b V1a O3b 6_665 . 1_556 95.2(4) yes
O3a V1a O3b 4_674 . 1_556 179.9(4) yes
O1a V2a O1a . . 2_555 105.6(5) yes
O1a V2a O1a . . 3_555 105.6(4) yes
O1a V2a O2a . . 4_554 157.8(5) yes
O1a V2a O2a . . 5_554 87.5(4) yes
O1a V2a O2a . . 6_554 87.5(3) yes
O1a V2a O1a 2_555 . 3_555 105.6(6) yes
O1a V2a O2a 2_555 . 4_554 87.5(3) yes
O1a V2a O2a 2_555 . 5_554 157.8(5) yes
O1a V2a O2a 2_555 . 6_554 87.5(5) yes
O1a V2a O2a 3_555 . 4_554 87.5(4) yes
O1a V2a O2a 3_555 . 5_554 87.5(5) yes
O1a V2a O2a 3_555 . 6_554 157.8(5) yes
O2a V2a O2a 4_554 . 5_554 75.0(4) yes
O2a V2a O2a 4_554 . 6_554 75.0(4) yes
O2a V2a O2a 5_554 . 6_554 75.0(6) yes
O1b V2b O1b . . 2_555 97.2(4) yes
O1b V2b O1b . . 3_555 97.2(4) yes
O1b V2b O2a . . 4_554 170.1(5) yes
O1b V2b O2a . . 5_554 89.4(4) yes
O1b V2b O2a . . 6_554 89.4(3) yes
O1b V2b O1b 2_555 . 3_555 97.2(5) yes
O1b V2b O2a 2_555 . 4_554 89.4(3) yes
O1b V2b O2a 2_555 . 5_554 170.1(5) yes
O1b V2b O2a 2_555 . 6_554 89.4(5) yes
O1b V2b O2a 3_555 . 4_554 89.4(4) yes
O1b V2b O2a 3_555 . 5_554 89.4(5) yes
O1b V2b O2a 3_555 . 6_554 170.1(5) yes
O2a V2b O2a 4_554 . 5_554 83.2(4) yes
O2a V2b O2a 4_554 . 6_554 83.2(4) yes
O2a V2b O2a 5_554 . 6_554 83.2(6) yes
O2a V3a O2a . . 2_665 119.5(6) yes
O2a V3a O2a . . 3_565 119.5(4) yes
O2a V3a O3a . . . 94.1(3) yes
O2a V3a O3b . . 1_556 85.9(3) yes
O2a V3a O2a 2_665 . 3_565 119.5(6) yes
O2a V3a O3a 2_665 . . 94.1(3) yes
O2a V3a O3b 2_665 . 1_556 85.9(3) yes
O2a V3a O3a 3_565 . . 94.1(3) yes
O2a V3a O3b 3_565 . 1_556 85.9(3) yes
O3a V3a O3b . . 1_556 180 yes
V1a O1a V1a 2_665 . 3_565 89.9(4) yes
V1a O1a V2a 2_665 . . 127.4(3) yes
V1a O1a V2a 3_565 . . 127.4(7) yes
V1a O1b V1a 5_454 . 6_654 101.2(4) yes
V1a O1b V2b 5_454 . . 125.5(3) yes
V1a O1b V2b 6_654 . . 125.5(7) yes
V2a O2a V2b 4_555 . 4_555 85.3(5) yes
V2a O2a V3a 4_555 . . 130.6(4) yes
V2b O2a V3a 4_555 . . 144.2(4) yes
V1a O3a V1a 4_675 . 5_455 89.1(3) yes
V1a O3a V1a 4_675 . 6_655 89.1(3) yes
V1a O3a V3a 4_675 . . 125.9(2) yes
V1a O3a V1a 5_455 . 6_655 89.1(4) yes
V1a O3a V3a 5_455 . . 125.9(2) yes
V1a O3a V3a 6_655 . . 125.9(3) yes
V1a O3b V1a 1_554 . 2_664 89.2(4) yes
V1a O3b V1a 1_554 . 3_564 89.2(4) yes
V1a O3b V3a 1_554 . 1_554 125.8(3) yes
V1a O3b V1a 2_664 . 3_564 89.2(4) yes
V1a O3b V3a 2_664 . 1_554 125.8(3) yes
V1a O3b V3a 3_564 . 1_554 125.8(3) yes
loop_
_geom_bond_atom_site_label_1
_geom_bond_atom_site_label_2
_geom_bond_site_symmetry_1
_geom_bond_site_symmetry_2
_geom_bond_distance
_geom_bond_publ_flag
Baa O1a . . 2.757(8) yes
Baa O1a . 2_665 2.757(8) yes
Baa O1a . 3_565 2.757(9) yes
Baa O1b . . 2.757(8) yes
Baa O1b . 2_665 2.757(8) yes
Baa O1b . 3_565 2.757(9) yes
Baa O2a . 4_564 2.887(11) yes
Baa O2a . 4_664 2.887(10) yes
Baa O2a . 5_554 2.887(17) yes
Baa O2a . 5_564 2.887(17) yes
Baa O2a . 6_554 2.887(9) yes
Baa O2a . 6_664 2.887(10) yes
V1a V1a . 2_665 2.748(8) yes
V1a V1a . 3_565 2.748(10) yes
V1a O1a . 2_665 1.945(15) yes
V1a O1a . 3_565 1.945(11) yes
V1a O1b . 5_565 1.951(16) yes
V1a O1b . 6_665 1.951(11) yes
V1a O3a . 4_674 2.149(8) yes
V1a O3b . 1_556 1.956(8) yes
V2a V2b . . 2.754(11) yes
V2a O1a . . 1.877(11) yes
V2a O1a . 2_555 1.877(11) yes
V2a O1a . 3_555 1.877(13) yes
V2a O2a . 4_554 2.119(10) yes
V2a O2a . 5_554 2.119(10) yes
V2a O2a . 6_554 2.119(12) yes
V2b O1b . . 1.993(11) yes
V2b O1b . 2_555 1.993(11) yes
V2b O1b . 3_555 1.993(12) yes
V2b O2a . 4_554 1.943(10) yes
V2b O2a . 5_554 1.943(10) yes
V2b O2a . 6_554 1.943(12) yes
V3a O2a . . 1.842(12) yes
V3a O2a . 2_665 1.842(12) yes
V3a O2a . 3_565 1.842(15) yes
V3a O3a . . 1.967(12) yes
V3a O3b . 1_556 2.232(12) yes
O1a O1a . 2_555 2.990(13) yes
O1a O1a . 2_665 2.773(13) yes
O1a O1a . 3_555 2.990(16) yes
O1a O1a . 3_565 2.773(16) yes
O1a O1b . 5_555 2.729(14) yes
O1a O1b . 6_555 2.729(10) yes
O1a O2a . 5_554 2.769(13) yes
O1a O2a . 6_554 2.769(9) yes
O1a O3a . 4_564 2.886(9) yes
O1a O3a . 4_664 2.886(9) yes
O1a O3b . 1_556 2.769(10) yes
O1b O1b . 2_555 2.990(13) yes
O1b O1b . 2_665 2.773(13) yes
O1b O1b . 3_555 2.990(16) yes
O1b O1b . 3_565 2.773(16) yes
O1b O2a . 5_554 2.769(13) yes
O1b O2a . 6_554 2.769(9) yes
O1b O3a . 1_554 2.769(10) yes
O1b O3b . 4_565 2.886(9) yes
O1b O3b . 4_665 2.886(9) yes
O2a O2a . 2_555 2.581(14) yes
O2a O2a . 3_555 2.581(18) yes
O2a O3a . . 2.790(10) yes
O2a O3b . 1_556 2.790(10) yes
loop_
_refln_index_h
_refln_index_k
_refln_index_l
0 1 -16
0 1 -15
-1 3 -15
0 1 -14
-1 2 -14
-1 3 -14
-1 4 -14
0 1 -13
0 2 -13
-1 3 -13
0 3 -13
-1 4 -13
0 4 -13
0 0 -12
0 1 -12
-1 2 -12
0 2 -12
-1 4 -12
-1 5 -12
0 1 -11
0 2 -11
-1 3 -11
-1 4 -11
0 4 -11
-1 5 -11
0 0 -10
0 1 -10
-1 2 -10
0 2 -10
-1 3 -10
0 3 -10
-2 4 -10
0 4 -10
-1 5 -10
0 5 -10
0 1 -9
0 2 -9
-1 3 -9
-1 4 -9
0 4 -9
-1 5 -9
0 5 -9
0 1 -8
-1 2 -8
0 2 -8
-1 3 -8
0 3 -8
-1 4 -8
0 4 -8
-1 5 -8
0 5 -8
0 2 -7
-1 3 -7
-1 4 -7
0 4 -7
0 5 -7
0 6 -7
0 0 -6
0 2 -6
-1 3 -6
0 3 -6
-1 4 -6
0 4 -6
-2 5 -6
-1 5 -6
0 5 -6
-1 6 -6
0 1 -5
-1 3 -5
0 3 -5
-1 4 -5
0 4 -5
-2 5 -5
-1 5 -5
0 5 -5
-1 6 -5
0 0 -4
0 1 -4
-1 2 -4
-1 3 -4
0 3 -4
-2 4 -4
-1 4 -4
0 4 -4
-1 5 -4
0 5 -4
-1 6 -4
0 6 -4
0 1 -3
0 3 -3
-1 4 -3
0 4 -3
-2 5 -3
-1 5 -3
0 5 -3
-1 6 -3
0 6 -3
0 0 -2
0 1 -2
-1 2 -2
0 2 -2
0 3 -2
-2 4 -2
-1 4 -2
0 4 -2
-2 5 -2
-1 5 -2
0 5 -2
-1 6 -2
0 6 -2
0 1 -1
0 2 -1
-1 3 -1
0 3 -1
-1 4 -1
0 4 -1
-2 5 -1
0 5 -1
-1 6 -1
0 6 -1
0 1 0
-1 2 0
0 2 0
0 3 0
-1 4 0
-2 5 0
-1 5 0
0 5 0
-1 6 0
0 6 0
0 1 1
0 2 1
-1 3 1
0 3 1
-1 4 1
0 4 1
-2 5 1
0 5 1
-2 6 1
-1 6 1
0 0 2
0 1 2
-1 2 2
0 2 2
0 3 2
-1 4 2
0 4 2
-2 5 2
-1 5 2
0 5 2
-2 6 2
-1 6 2
0 6 2
0 1 3
0 3 3
-1 4 3
0 4 3
-2 5 3
-1 5 3
0 5 3
-2 6 3
-1 6 3
0 6 3
0 0 4
0 1 4
-1 2 4
-1 3 4
0 3 4
-2 4 4
-1 4 4
0 4 4
-1 5 4
0 5 4
-2 6 4
-1 6 4
0 6 4
0 1 5
-1 3 5
0 3 5
-1 4 5
0 4 5
-2 5 5
-1 5 5
0 5 5
-2 6 5
-1 6 5
0 0 6
0 2 6
-1 3 6
0 3 6
-2 4 6
-1 4 6
0 4 6
-2 5 6
-1 5 6
0 5 6
-1 6 6
0 6 6
0 2 7
-1 3 7
-1 4 7
0 4 7
-2 5 7
-1 5 7
0 5 7
0 0 8
0 1 8
-1 2 8
0 2 8
-1 3 8
0 3 8
-2 4 8
-1 4 8
0 4 8
-2 5 8
-1 5 8
0 5 8
-1 6 8
0 1 9
0 2 9
-1 3 9
0 3 9
-1 4 9
0 4 9
-2 5 9
-1 5 9
0 5 9
-1 6 9
0 0 10
0 1 10
-1 2 10
0 2 10
-1 3 10
0 3 10
-2 4 10
-1 4 10
0 4 10
-2 5 10
-1 5 10
0 5 10
0 1 11
0 2 11
-1 3 11
0 3 11
-1 4 11
0 4 11
-2 5 11
-1 5 11
0 5 11
0 0 12
0 1 12
-1 2 12
0 2 12
-1 3 12
0 3 12
-2 4 12
-1 4 12
0 4 12
-2 5 12
-1 5 12
0 1 13
0 2 13
-1 3 13
0 3 13
-1 4 13
0 4 13
-2 5 13
0 0 14
0 1 14
-1 2 14
0 2 14
-1 3 14
0 3 14
-2 4 14
-1 4 14
0 1 15
0 2 15
-1 3 15
0 0 16
0 1 16
0 2 16
-1 3 16
0 1 17
