#------------------------------------------------------------------------------
#$Date: 2016-02-20 02:53:41 +0200 (Sat, 20 Feb 2016) $
#$Revision: 176768 $
#$URL: svn://www.crystallography.net/cod/cif/2/10/41/2104149.cif $
#------------------------------------------------------------------------------
#
# This file is available in the Crystallography Open Database (COD),
# http://www.crystallography.net/. The original data for this entry
# were provided by IUCr Journals, http://journals.iucr.org/.
#
# The file may be used within the scientific community so long as
# proper attribution is given to the journal article from which the
# data were obtained.
#
data_2104149
loop_
_publ_author_name
'Redhammer, G\"unther J.'
'Roth, Georg'
'Amthauer, Georg'
'Lottermoser, Werner'
_publ_section_title
;
 On the crystal chemistry of olivine-type germanate compounds,
 Ca~1+<i>x~</i><i>M</i>~1{-~<i>x</i>}GeO~4~ (<i>M</i>^2+^ = Ca, Mg, Co,
 Mn)
;
_journal_coeditor_code           WS5059
_journal_issue                   3
_journal_name_full               'Acta Crystallographica Section B'
_journal_page_first              261
_journal_page_last               271
_journal_paper_doi               10.1107/S0108768108010434
_journal_volume                  64
_journal_year                    2008
_chemical_formula_sum            'Ca1.16 Ge Mg0.83 O4'
_chemical_formula_weight         203.52
_space_group_crystal_system      orthorhombic
_space_group_IT_number           62
_space_group_name_Hall           '-P 2ac 2n'
_space_group_name_H-M_alt        'P n m a'
_symmetry_space_group_name_Hall  '-P 2ac 2n'
_symmetry_space_group_name_H-M   'P n m a'
_audit_creation_method           'WinGX routine CIF_UPDATE'
_cell_angle_alpha                90
_cell_angle_beta                 90
_cell_angle_gamma                90
_cell_formula_units_Z            4
_cell_length_a                   11.2916(7)
_cell_length_b                   6.4405(4)
_cell_length_c                   5.0251(3)
_cell_measurement_reflns_used    3945
_cell_measurement_temperature    295(2)
_cell_measurement_theta_max      28.7
_cell_measurement_theta_min      3.61
_cell_volume                     365.44(4)
_computing_cell_refinement       'Bruker SAINT+ (Bruker, 2001)'
_computing_data_collection       'Bruker SMART+ (Bruker, 2001)'
_computing_data_reduction        'Bruker SAINT+ (Bruker, 2001)'
_computing_molecular_graphics    'Diamonds 3.0 (Pennington,1999)'
_computing_publication_material  'WinGX v1.70.01 (Farrugia 1999)'
_computing_structure_refinement  'SHELXL-97 (Sheldrick, 1997)'
_computing_structure_solution    'SHELXS-97 (Sheldrick, 1997)'
_diffrn_measured_fraction_theta_full 0.975
_diffrn_measured_fraction_theta_max 0.975
_diffrn_measurement_device       '3-circle diffractometer'
_diffrn_measurement_device_type  'SMART APEX'
_diffrn_measurement_method
'rotation, \w-scans at 4 different \f positions'
_diffrn_radiation_type           MoK\a
_diffrn_radiation_wavelength     0.71073
_diffrn_reflns_av_R_equivalents  0.0358
_diffrn_reflns_limit_h_max       15
_diffrn_reflns_limit_h_min       -15
_diffrn_reflns_limit_k_max       8
_diffrn_reflns_limit_k_min       -8
_diffrn_reflns_limit_l_max       7
_diffrn_reflns_limit_l_min       -6
_diffrn_reflns_number            4411
_diffrn_reflns_theta_full        29.67
_diffrn_reflns_theta_max         29.67
_diffrn_reflns_theta_min         3.61
_diffrn_standards_decay_%        0
_diffrn_standards_interval_count 0
_diffrn_standards_interval_time  0
_diffrn_standards_number         0
_exptl_absorpt_coefficient_mu    10.010
_exptl_absorpt_correction_T_max  0.67
_exptl_absorpt_correction_T_min  0.55
_exptl_absorpt_correction_type   numerical
_exptl_absorpt_process_details
'via equivalents using X-SHAPE (Stoe & Cie 1996)'
_exptl_crystal_colour            colourless
_exptl_crystal_density_diffrn    3.7
_exptl_crystal_density_method    'not measured'
_exptl_crystal_description       cuboid
_exptl_crystal_F_000             389.1
_exptl_crystal_size_max          0.07
_exptl_crystal_size_mid          0.05
_exptl_crystal_size_min          0.04
_refine_diff_density_max         0.768
_refine_diff_density_min         -0.614
_refine_ls_extinction_method     none
_refine_ls_goodness_of_fit_ref   1.218
_refine_ls_hydrogen_treatment    noref
_refine_ls_matrix_type           full
_refine_ls_number_parameters     43
_refine_ls_number_reflns         542
_refine_ls_number_restraints     1
_refine_ls_restrained_S_all      1.216
_refine_ls_R_factor_gt           0.0223
_refine_ls_shift/su_max          0
_refine_ls_structure_factor_coef Fsqd
_refine_ls_weighting_details
'calc w=1/[\s^2^(Fo^2^)+(0.0229P)^2^+0.4844P] where P=(Fo^2^+2Fc^2^)/3'
_refine_ls_weighting_scheme      calc
_refine_ls_wR_factor_ref         0.0512
_reflns_number_gt                536
_reflns_number_total             542
_reflns_threshold_expression     >2sigma(I)
_cod_data_source_file            ws5059.cif
_cod_data_source_block           camg_a1
_cod_database_code               2104149
_cod_database_fobs_code          2104149
loop_
_symmetry_equiv_pos_as_xyz
'x, y, z'
'-x+1/2, -y, z+1/2'
'x+1/2, -y+1/2, -z+1/2'
'-x, y+1/2, -z'
'-x, -y, -z'
'x-1/2, y, -z-1/2'
'-x-1/2, y-1/2, z-1/2'
'x, -y-1/2, z'
loop_
_atom_site_type_symbol
_atom_site_label
_atom_site_fract_x
_atom_site_fract_y
_atom_site_fract_z
_atom_site_U_iso_or_equiv
_atom_site_adp_type
_atom_site_calc_flag
_atom_site_refinement_flags
_atom_site_occupancy
Ge Ge1 -0.41683(3) 0.25 0.07827(7) 0.01143(15) Uani d S 1
Mg Mg1 -0.5 0 0.5 0.0119(2) Uani d SP 0.84
Ca Ca1 -0.5 0 0.5 0.0119(2) Uani d SP 0.16
Ca Ca2 -0.22417(6) 0.25 0.51236(14) 0.01142(18) Uani d S 1
O O1 -0.4184(2) 0.25 -0.2679(5) 0.0155(5) Uani d S 1
O O2 -0.5548(2) 0.25 0.2480(5) 0.0151(5) Uani d S 1
O O3 -0.34974(14) 0.0350(3) 0.2315(3) 0.0146(4) Uani d . 1
loop_
_atom_site_aniso_label
_atom_site_aniso_U_11
_atom_site_aniso_U_22
_atom_site_aniso_U_33
_atom_site_aniso_U_12
_atom_site_aniso_U_13
_atom_site_aniso_U_23
Ge1 0.0114(2) 0.0139(2) 0.0090(2) 0 -0.00049(12) 0
Mg1 0.0131(5) 0.0123(5) 0.0103(5) -0.0022(4) 0.0006(4) 0.0019(4)
Ca1 0.0131(5) 0.0123(5) 0.0103(5) -0.0022(4) 0.0006(4) 0.0019(4)
Ca2 0.0101(3) 0.0124(3) 0.0118(3) 0 -0.0005(2) 0
O1 0.0173(12) 0.0220(13) 0.0073(11) 0 0.0000(9) 0
O2 0.0092(10) 0.0209(13) 0.0152(11) 0 -0.0005(9) 0
O3 0.0153(8) 0.0139(8) 0.0145(8) 0.0023(7) -0.0022(7) -0.0016(7)
loop_
_atom_type_symbol
_atom_type_description
_atom_type_scat_dispersion_real
_atom_type_scat_dispersion_imag
_atom_type_scat_source
O O 0.0106 0.006 'International Tables Vol C Tables 4.2.6.8 and 6.1.1.4'
Ca Ca 0.2262 0.3064 'International Tables Vol C Tables 4.2.6.8 and 6.1.1.4'
Ge Ge 0.1547 1.8001 'International Tables Vol C Tables 4.2.6.8 and 6.1.1.4'
Mg Mg 0.0486 0.0363 'International Tables Vol C Tables 4.2.6.8 and 6.1.1.4'
loop_
_geom_angle_atom_site_label_1
_geom_angle_atom_site_label_2
_geom_angle_atom_site_label_3
_geom_angle_site_symmetry_1
_geom_angle_site_symmetry_3
_geom_angle
O1 Ge1 O3 . 8_565 116.28(7)
O1 Ge1 O3 . . 116.28(7)
O3 Ge1 O3 8_565 . 104.09(11)
O1 Ge1 O2 . . 118.13(11)
O3 Ge1 O2 8_565 . 99.66(7)
O3 Ge1 O2 . . 99.66(7)
O2 Mg1 O2 5_456 . 180
O2 Mg1 O3 5_456 5_456 77.35(8)
O2 Mg1 O3 . 5_456 102.65(8)
O2 Mg1 O3 5_456 . 102.65(8)
O2 Mg1 O3 . . 77.35(8)
O3 Mg1 O3 5_456 . 180
O2 Mg1 O1 5_456 1_556 96.68(7)
O2 Mg1 O1 . 1_556 83.32(7)
O3 Mg1 O1 5_456 1_556 94.25(8)
O3 Mg1 O1 . 1_556 85.75(8)
O2 Mg1 O1 5_456 5_455 83.32(7)
O2 Mg1 O1 . 5_455 96.68(7)
O3 Mg1 O1 5_456 5_455 85.75(8)
O3 Mg1 O1 . 5_455 94.25(8)
O1 Mg1 O1 1_556 5_455 180
O3 Ca2 O3 7_566 2_455 106.05(9)
O3 Ca2 O2 7_566 6_656 88.33(6)
O3 Ca2 O2 2_455 6_656 88.33(6)
O3 Ca2 O3 7_566 . 160.82(7)
O3 Ca2 O3 2_455 . 92.01(4)
O2 Ca2 O3 6_656 . 98.83(7)
O3 Ca2 O3 7_566 8_565 92.01(4)
O3 Ca2 O3 2_455 8_565 160.82(7)
O2 Ca2 O3 6_656 8_565 98.83(7)
O3 Ca2 O3 . 8_565 69.39(8)
O3 Ca2 O1 7_566 1_556 96.25(6)
O3 Ca2 O1 2_455 1_556 96.25(6)
O2 Ca2 O1 6_656 1_556 172.35(9)
O3 Ca2 O1 . 1_556 74.95(6)
O3 Ca2 O1 8_565 1_556 74.95(6)
loop_
_geom_bond_atom_site_label_1
_geom_bond_atom_site_label_2
_geom_bond_site_symmetry_2
_geom_bond_distance
Ge1 O1 . 1.740(3)
Ge1 O3 8_565 1.7563(18)
Ge1 O3 . 1.7563(18)
Ge1 O2 . 1.776(2)
Mg1 O2 5_456 2.1399(17)
Mg1 O2 . 2.1399(17)
Mg1 O3 5_456 2.1793(17)
Mg1 O3 . 2.1793(17)
Mg1 O1 1_556 2.1914(17)
Mg1 O1 5_455 2.1914(17)
Ca2 O3 7_566 2.2975(18)
Ca2 O3 2_455 2.2975(18)
Ca2 O2 6_656 2.317(2)
Ca2 O3 . 2.4330(18)
Ca2 O3 8_565 2.4330(18)
Ca2 O1 1_556 2.455(2)
