#------------------------------------------------------------------------------
#$Date: 2016-02-20 02:53:41 +0200 (Sat, 20 Feb 2016) $
#$Revision: 176768 $
#$URL: svn://www.crystallography.net/cod/cif/2/10/44/2104428.cif $
#------------------------------------------------------------------------------
#
# This file is available in the Crystallography Open Database (COD),
# http://www.crystallography.net/. The original data for this entry
# were provided by IUCr Journals, http://journals.iucr.org/.
#
# The file may be used within the scientific community so long as
# proper attribution is given to the journal article from which the
# data were obtained.
#
data_2104428
loop_
_publ_author_name
'Kasuni\<c, Marta'
'Meden, Anton'
'\<Skapin, Sre\<co D.'
'Suvorov, Danilo'
'Golobi\<c, Amalija'
_publ_section_title
;
 Order--disorder of oxygen anions and vacancies in solid solutions of
 La~2~TiO~5~ and La~4~Ga~2~O~9~
;
_journal_coeditor_code           KD5032
_journal_issue                   5
_journal_name_full               'Acta Crystallographica Section B'
_journal_page_first              558
_journal_page_last               566
_journal_paper_doi               10.1107/S010876810902833X
_journal_volume                  65
_journal_year                    2009
_chemical_formula_moiety         'Ga0.5 La2 O4.75 Ti0.5'
_chemical_formula_sum            'Ga0.5 La2 O4.75 Ti0.5'
_chemical_formula_weight         412.615
_chemical_name_systematic        ' ?'
_space_group_IT_number           62
_space_group_name_Hall           '-P 2c 2n'
_symmetry_cell_setting           orthorhombic
_symmetry_space_group_name_Hall  '-P 2c 2n'
_symmetry_space_group_name_H-M   'P n a m'
_cell_angle_alpha                90
_cell_angle_beta                 90
_cell_angle_gamma                90
_cell_formula_units_Z            4
_cell_length_a                   11.09937(19)
_cell_length_b                   11.14255(17)
_cell_length_c                   3.98321(5)
_cell_measurement_temperature    293.0(10)
_cell_volume                     492.625(13)
_computing_structure_refinement  'Topas Academic v4.1 (Coelho, 2004)'
_diffrn_ambient_temperature      293.0(10)
_diffrn_measurement_device_type  'Bruker AXS D4 Endeavor'
_diffrn_radiation_monochromator  'graphite, secondary'
_diffrn_radiation_type           'Cu K\a'
_diffrn_radiation_wavelength     1.5418
_exptl_crystal_density_diffrn    5.564
_pd_char_colour                  'pale yellow'
_pd_char_particle_morphology     irregular
_pd_instr_location               ' ?'
_pd_meas_2theta_range_inc        0.020
_pd_meas_2theta_range_max        140
_pd_meas_2theta_range_min        10
_pd_meas_number_of_points        6501
_pd_meas_scan_method             step
_pd_prep_temperature             1573.0(10)
_pd_proc_2theta_range_inc        0.020
_pd_proc_2theta_range_max        140
_pd_proc_2theta_range_min        10
_pd_proc_info_excluded_regions   none
_pd_proc_ls_background_function  'Chebychev polynomial, order 6'
_pd_proc_ls_pref_orient_corr     none
_pd_proc_ls_profile_function     'TOPAS Fundamental parameters approach'
_pd_proc_ls_prof_R_factor        0.08814
_pd_proc_ls_prof_wR_expected     0.06958
_pd_proc_ls_prof_wR_factor       0.11458
_pd_proc_wavelength              1.5418
_pd_spec_mounting                ' flat plate'
_pd_spec_mount_mode              reflection
_pd_spec_shape                   irregular
_refine_ls_goodness_of_fit_all   1.647
_refine_ls_number_parameters     33
_refine_ls_shift/su_max          0.001
_cod_data_source_file            kd5032.cif
_cod_data_source_block           3
_cod_database_code               2104428
loop_
_symmetry_equiv_pos_as_xyz
'x, y, z'
'-x+1/2, y+1/2, -z'
'x+1/2, -y+1/2, -z+1/2'
'-x, -y, z+1/2'
'-x, -y, -z'
'x+1/2, -y+1/2, z'
'-x+1/2, y+1/2, z+1/2'
'x, y, -z+1/2'
loop_
_atom_site_type_symbol
_atom_site_label
_atom_site_fract_x
_atom_site_fract_y
_atom_site_fract_z
_atom_site_occupancy
La La1 0.12879(15) 0.07192(14) 0.25 1
La La2 0.40711(14) 0.20894(15) 0.75 1
Ti Ti 0.1929(4) 0.3739(4) 0.25 0.5
Ga Ga 0.1929(4) 0.3739(4) 0.25 0.5
O O1 0.0028(14) 0.0998(15) 0.75 1
O O2 0.2714(14) 0.0228(15) 0.75 1
O O3 0.2316(17) 0.376(2) 0.75 0.75
O O4 0.2871(15) 0.2393(14) 0.25 1
O O5 0.0328(14) 0.3235(15) 0.25 1
loop_
_atom_type_symbol
_atom_type_description
_atom_type_scat_dispersion_real
_atom_type_scat_dispersion_imag
_atom_type_scat_source
? ? ? ? ?
loop_
_geom_angle_atom_site_label_1
_geom_angle_atom_site_label_2
_geom_angle_atom_site_label_3
_geom_angle_site_symmetry_1
_geom_angle_site_symmetry_2
_geom_angle_site_symmetry_3
_geom_angle
_geom_angle_publ_flag
O1 La1 O2 . . . 75.6(4) no
O1 La1 O4 . . . 107.4(4) no
O1 La1 O1 . . 1_554 108.6(4) no
O1 La1 O2 . . 1_554 174.1(5) no
O1 La1 O3 . . 2_546 115.7(4) no
O1 La1 O1 . . 4_554 75.8(4) no
O2 La1 O4 . . . 74.7(4) no
O1 La1 O2 1_554 . . 174.1(5) no
O2 La1 O2 . . 1_554 99.9(4) no
O2 La1 O3 . . 2_546 58.4(4) no
O1 La1 O2 4_554 . . 101.7(4) no
O1 La1 O4 1_554 . . 107.4(4) no
O2 La1 O4 1_554 . . 74.7(4) no
O3 La1 O4 2_546 . . 101.3(6) no
O1 La1 O4 4_554 . . 174.1(5) no
O1 La1 O2 1_554 . 1_554 75.6(4) no
O1 La1 O3 1_554 . 2_546 115.7(4) no
O1 La1 O1 1_554 . 4_554 75.8(4) no
O2 La1 O3 1_554 . 2_546 58.4(4) no
O1 La1 O2 4_554 . 1_554 101.7(4) no
O1 La1 O3 4_554 . 2_546 72.7(6) no
O2 La2 O3 . . . 97.7(6) no
O2 La2 O4 . . . 77.9(4) no
O2 La2 O4 . . 1_556 77.9(4) no
O2 La2 O5 . . 3_555 102.4(4) no
O1 La2 O2 3_556 . . 170.5(5) no
O2 La2 O5 . . 3_556 102.4(4) no
O3 La2 O4 . . . 60.4(4) no
O3 La2 O4 . . 1_556 60.4(4) no
O3 La2 O5 . . 3_555 120.8(4) no
O1 La2 O3 3_556 . . 72.8(6) no
O3 La2 O5 . . 3_556 120.8(4) no
O4 La2 O4 . . 1_556 110.8(5) no
O4 La2 O5 . . 3_555 70.5(4) no
O1 La2 O4 3_556 . . 96.9(4) no
O4 La2 O5 . . 3_556 178.7(4) no
O4 La2 O5 1_556 . 3_555 178.7(4) no
O1 La2 O4 3_556 . 1_556 96.9(4) no
O4 La2 O5 1_556 . 3_556 70.5(4) no
O1 La2 O5 3_556 . 3_555 83.0(4) no
O5 La2 O5 3_555 . 3_556 108.2(4) no
O1 La2 O5 3_556 . 3_556 83.0(4) no
O4 Ga O5 . . . 107.3(8) no
O2 Ga O4 2_556 . . 131.7(8) no
O2 Ga O5 2_556 . . 121.0(8) no
O4 Ti O5 . . . 107.3(8) no
O2 Ti O4 2_556 . . 131.7(8) no
O2 Ti O5 2_556 . . 121.0(8) no
La1 O1 La1 . . 1_556 108.6(6) no
La1 O1 La2 . . 3_456 111.6(5) no
La1 O1 La1 . . 4_555 104.2(5) no
La1 O1 La2 1_556 . 3_456 111.6(5) no
La1 O1 La1 1_556 . 4_555 104.2(5) no
La1 O1 La2 4_555 . 3_456 116.2(6) no
La1 O2 La2 . . . 100.8(5) no
La1 O2 La1 . . 1_556 99.9(5) no
La1 O2 Ga . . 2_546 110.2(5) no
La1 O2 La2 1_556 . . 100.8(5) no
La2 O2 Ga . . 2_546 130.6(8) no
La1 O2 Ga 1_556 . 2_546 110.2(5) no
La1 O3 La2 2_556 . . 98.3(6) no
La1 O4 La2 . . . 106.0(4) no
La1 O4 Ga . . . 101.8(7) no
La1 O4 Ti . . . 101.8(7) no
La1 O4 La2 . . 1_554 106.0(4) no
La2 O4 Ga . . . 115.4(4) no
La2 O4 Ti . . . 115.4(4) no
La2 O4 La2 . . 1_554 110.8(7) no
La2 O4 Ga 1_554 . . 115.4(4) no
La2 O4 Ti 1_554 . . 115.4(4) no
La2 O5 Ga 3_455 . . 125.8(3) no
La2 O5 Ga 3_456 . . 125.8(3) no
La2 O5 Ti 3_455 . . 125.8(3) no
La2 O5 Ti 3_456 . . 125.8(3) no
La2 O5 La2 3_455 . 3_456 108.2(6) no
loop_
_geom_bond_atom_site_label_1
_geom_bond_atom_site_label_2
_geom_bond_site_symmetry_1
_geom_bond_site_symmetry_2
_geom_bond_distance
_geom_bond_publ_flag
La1 O1 . . 2.453(9) no
La1 O2 . . 2.602(10) no
La1 O4 . . 2.562(16) no
La1 O1 . 1_554 2.453(9) no
La1 O2 . 1_554 2.602(10) no
La1 O3 . 2_546 2.68(2) no
La1 O1 . 4_554 2.407(16) no
La2 O2 . . 2.563(16) no
La2 O3 . . 2.69(2) no
La2 O4 . . 2.420(9) no
La2 O4 . 1_556 2.420(9) no
La2 O5 . 3_555 2.458(9) no
La2 O1 . 3_556 2.381(17) no
La2 O5 . 3_556 2.458(9) no
Ga O4 . . 1.828(17) no
Ga O5 . . 1.864(16) no
Ga O2 . 2_556 1.706(17) no
Ti O4 . . 1.828(17) no
Ti O5 . . 1.864(16) no
Ti O2 . 2_556 1.706(17) no
loop_
_geom_torsion_atom_site_label_1
_geom_torsion_atom_site_label_2
_geom_torsion_atom_site_label_3
_geom_torsion_atom_site_label_4
_geom_torsion_site_symmetry_1
_geom_torsion_site_symmetry_2
_geom_torsion_site_symmetry_3
_geom_torsion_site_symmetry_4
_geom_torsion
_geom_torsion_publ_flag
O1 La1 O2 La2 . . . . -107.0(6) no
O4 La1 O2 La2 . . . . 5.9(4) no
O1 La1 O4 La2 . . . . 62.8(6) no
O1 La1 O4 Ga . . . . -58.3(4) no
O1 La1 O4 Ti . . . . -58.3(4) no
O2 La1 O4 La2 . . . . -6.4(5) no
O2 La1 O4 Ga . . . . -127.5(3) no
O2 La1 O4 Ti . . . . -127.5(3) no
O3 La2 O2 La1 . . . . 51.2(3) no
O4 La2 O2 La1 . . . . -6.2(4) no
O2 La2 O4 La1 . . . . 6.4(5) no
O2 La2 O4 Ga . . . . 118.3(8) no
O2 La2 O4 Ti . . . . 118.3(8) no
O3 La2 O4 La1 . . . . -99.9(7) no
O3 La2 O4 Ga . . . . 12.0(7) no
O3 La2 O4 Ti . . . . 12.0(7) no
O5 Ga O4 La1 . . . . 0.00 no
O5 Ga O4 La2 . . . . -114.3(6) no
O5 Ti O4 La1 . . . . 0.00 no
O5 Ti O4 La2 . . . . -114.3(6) no
