#------------------------------------------------------------------------------
#$Date: 2016-02-14 16:26:36 +0200 (Sun, 14 Feb 2016) $
#$Revision: 176435 $
#$URL: svn://www.crystallography.net/cod/cif/2/10/46/2104675.cif $
#------------------------------------------------------------------------------
#
# This file is available in the Crystallography Open Database (COD),
# http://www.crystallography.net/. The original data for this entry
# were provided by IUCr Journals, http://journals.iucr.org/.
#
# The file may be used within the scientific community so long as
# proper attribution is given to the journal article from which the
# data were obtained.
#
data_2104675
loop_
_publ_author_name
'Gemmi, Mauro'
'Klein, Holger'
'Rageau, Amelie'
'Strobel, Pierre'
'Le Cras, Federic'
_publ_section_title
;
 Structure solution of the new titanate Li~4~Ti~8~Ni~3~O~21~ using
 precession electron diffraction
;
_journal_issue                   1
_journal_name_full               'Acta Crystallographica Section B'
_journal_page_first              60
_journal_page_last               68
_journal_paper_doi               10.1107/S010876810904631X
_journal_volume                  66
_journal_year                    2010
_chemical_formula_sum            'Li Ni0.5 O4 Ti1.5'
_chemical_formula_weight         172.14
_chemical_name_systematic        ' ?'
_space_group_IT_number           227
_symmetry_cell_setting           cubic
_symmetry_space_group_name_Hall  '-F 4vw 2vw 3'
_symmetry_space_group_name_H-M   'F d -3 m :2'
_cell_angle_alpha                90.0
_cell_angle_beta                 90.0
_cell_angle_gamma                90.0
_cell_formula_units_Z            8
_cell_length_a                   8.36437(6)
_cell_length_b                   8.36437
_cell_length_c                   8.36437
_cell_volume                     585.194(4)
_pd_block_id                     2009-10-12T16:58|CENTRO_IONICO_OCC1B_phase2|g||
_pd_phase_name
'from C:/data/structures/FLC/xrd/rietveld_Pi/P-3c/MODELLO1_ALL.EXP'
_cod_data_source_file            dr5025.cif
_cod_data_source_block           CENTRO_IONICO_OCC1B_phase_2
_cod_original_cell_volume        585.193(12)
_cod_original_sg_symbol_H-M      'F d -3 m'
_cod_original_formula_sum        'Li Ni0.50 O4 Ti1.50'
_cod_database_code               2104675
loop_
_symmetry_equiv_pos_site_id
_symmetry_equiv_pos_as_xyz
1 +x,+y,+z
2 +z,+x,+y
3 +y,+z,+x
4 +x+1/4,+y+1/4,-z
5 -z,+x+1/4,+y+1/4
6 +y+1/4,-z,+x+1/4
7 -z+1/4,+x+1/2,-y+3/4
8 -y+3/4,-z+1/4,+x+1/2
9 +y+1/2,-z+1/4,-x+3/4
10 -x+3/4,+y+1/2,-z+1/4
11 -z+1/4,-x+3/4,+y+1/2
12 +x+1/2,-y+3/4,-z+1/4
13 +y,+x,+z
14 +z,+y,+x
15 +x,+z,+y
16 +y+1/4,+x+1/4,-z
17 -z,+y+1/4,+x+1/4
18 +x+1/4,-z,+y+1/4
19 -z+1/4,+y+1/2,-x+3/4
20 -x+3/4,-z+1/4,+y+1/2
21 +x+1/2,-z+1/4,-y+3/4
22 -y+3/4,+x+1/2,-z+1/4
23 -z+1/4,-y+3/4,+x+1/2
24 +y+1/2,-x+3/4,-z+1/4
-1 -x,-y,-z
-2 -z,-x,-y
-3 -y,-z,-x
-4 -x+3/4,-y+3/4,+z
-5 +z,-x+3/4,-y+3/4
-6 -y+3/4,+z,-x+3/4
-7 +z+3/4,-x+1/2,+y+1/4
-8 +y+1/4,+z+3/4,-x+1/2
-9 -y+1/2,+z+3/4,+x+1/4
-10 +x+1/4,-y+1/2,+z+3/4
-11 +z+3/4,+x+1/4,-y+1/2
-12 -x+1/2,+y+1/4,+z+3/4
-13 -y,-x,-z
-14 -z,-y,-x
-15 -x,-z,-y
-16 -y+3/4,-x+3/4,+z
-17 +z,-y+3/4,-x+3/4
-18 -x+3/4,+z,-y+3/4
-19 +z+3/4,-y+1/2,+x+1/4
-20 +x+1/4,+z+3/4,-y+1/2
-21 -x+1/2,+z+3/4,+y+1/4
-22 +y+1/4,-x+1/2,+z+3/4
-23 +z+3/4,+y+1/4,-x+1/2
-24 -y+1/2,+x+1/4,+z+3/4
101 +x,+y+1/2,+z+1/2
102 +z,+x+1/2,+y+1/2
103 +y,+z+1/2,+x+1/2
104 +x+1/4,+y+3/4,-z+1/2
105 -z,+x+3/4,+y+3/4
106 +y+1/4,-z+1/2,+x+3/4
107 -z+1/4,+x,-y+1/4
108 -y+3/4,-z+3/4,+x
109 +y+1/2,-z+3/4,-x+1/4
110 -x+3/4,+y,-z+3/4
111 -z+1/4,-x+1/4,+y
112 +x+1/2,-y+1/4,-z+3/4
113 +y,+x+1/2,+z+1/2
114 +z,+y+1/2,+x+1/2
115 +x,+z+1/2,+y+1/2
116 +y+1/4,+x+3/4,-z+1/2
117 -z,+y+3/4,+x+3/4
118 +x+1/4,-z+1/2,+y+3/4
119 -z+1/4,+y,-x+1/4
120 -x+3/4,-z+3/4,+y
121 +x+1/2,-z+3/4,-y+1/4
122 -y+3/4,+x,-z+3/4
123 -z+1/4,-y+1/4,+x
124 +y+1/2,-x+1/4,-z+3/4
-101 -x,-y+1/2,-z+1/2
-102 -z,-x+1/2,-y+1/2
-103 -y,-z+1/2,-x+1/2
-104 -x+3/4,-y+1/4,+z+1/2
-105 +z,-x+1/4,-y+1/4
-106 -y+3/4,+z+1/2,-x+1/4
-107 +z+3/4,-x,+y+3/4
-108 +y+1/4,+z+1/4,-x
-109 -y+1/2,+z+1/4,+x+3/4
-110 +x+1/4,-y,+z+1/4
-111 +z+3/4,+x+3/4,-y
-112 -x+1/2,+y+3/4,+z+1/4
-113 -y,-x+1/2,-z+1/2
-114 -z,-y+1/2,-x+1/2
-115 -x,-z+1/2,-y+1/2
-116 -y+3/4,-x+1/4,+z+1/2
-117 +z,-y+1/4,-x+1/4
-118 -x+3/4,+z+1/2,-y+1/4
-119 +z+3/4,-y,+x+3/4
-120 +x+1/4,+z+1/4,-y
-121 -x+1/2,+z+1/4,+y+3/4
-122 +y+1/4,-x,+z+1/4
-123 +z+3/4,+y+3/4,-x
-124 -y+1/2,+x+3/4,+z+1/4
201 +x+1/2,+y,+z+1/2
202 +z+1/2,+x,+y+1/2
203 +y+1/2,+z,+x+1/2
204 +x+3/4,+y+1/4,-z+1/2
205 -z+1/2,+x+1/4,+y+3/4
206 +y+3/4,-z,+x+3/4
207 -z+3/4,+x+1/2,-y+1/4
208 -y+1/4,-z+1/4,+x
209 +y,-z+1/4,-x+1/4
210 -x+1/4,+y+1/2,-z+3/4
211 -z+3/4,-x+3/4,+y
212 +x,-y+3/4,-z+3/4
213 +y+1/2,+x,+z+1/2
214 +z+1/2,+y,+x+1/2
215 +x+1/2,+z,+y+1/2
216 +y+3/4,+x+1/4,-z+1/2
217 -z+1/2,+y+1/4,+x+3/4
218 +x+3/4,-z,+y+3/4
219 -z+3/4,+y+1/2,-x+1/4
220 -x+1/4,-z+1/4,+y
221 +x,-z+1/4,-y+1/4
222 -y+1/4,+x+1/2,-z+3/4
223 -z+3/4,-y+3/4,+x
224 +y,-x+3/4,-z+3/4
-201 -x+1/2,-y,-z+1/2
-202 -z+1/2,-x,-y+1/2
-203 -y+1/2,-z,-x+1/2
-204 -x+1/4,-y+3/4,+z+1/2
-205 +z+1/2,-x+3/4,-y+1/4
-206 -y+1/4,+z,-x+1/4
-207 +z+1/4,-x+1/2,+y+3/4
-208 +y+3/4,+z+3/4,-x
-209 -y,+z+3/4,+x+3/4
-210 +x+3/4,-y+1/2,+z+1/4
-211 +z+1/4,+x+1/4,-y
-212 -x,+y+1/4,+z+1/4
-213 -y+1/2,-x,-z+1/2
-214 -z+1/2,-y,-x+1/2
-215 -x+1/2,-z,-y+1/2
-216 -y+1/4,-x+3/4,+z+1/2
-217 +z+1/2,-y+3/4,-x+1/4
-218 -x+1/4,+z,-y+1/4
-219 +z+1/4,-y+1/2,+x+3/4
-220 +x+3/4,+z+3/4,-y
-221 -x,+z+3/4,+y+3/4
-222 +y+3/4,-x+1/2,+z+1/4
-223 +z+1/4,+y+1/4,-x
-224 -y,+x+1/4,+z+1/4
301 +x+1/2,+y+1/2,+z
302 +z+1/2,+x+1/2,+y
303 +y+1/2,+z+1/2,+x
304 +x+3/4,+y+3/4,-z
305 -z+1/2,+x+3/4,+y+1/4
306 +y+3/4,-z+1/2,+x+1/4
307 -z+3/4,+x,-y+3/4
308 -y+1/4,-z+3/4,+x+1/2
309 +y,-z+3/4,-x+3/4
310 -x+1/4,+y,-z+1/4
311 -z+3/4,-x+1/4,+y+1/2
312 +x,-y+1/4,-z+1/4
313 +y+1/2,+x+1/2,+z
314 +z+1/2,+y+1/2,+x
315 +x+1/2,+z+1/2,+y
316 +y+3/4,+x+3/4,-z
317 -z+1/2,+y+3/4,+x+1/4
318 +x+3/4,-z+1/2,+y+1/4
319 -z+3/4,+y,-x+3/4
320 -x+1/4,-z+3/4,+y+1/2
321 +x,-z+3/4,-y+3/4
322 -y+1/4,+x,-z+1/4
323 -z+3/4,-y+1/4,+x+1/2
324 +y,-x+1/4,-z+1/4
-301 -x+1/2,-y+1/2,-z
-302 -z+1/2,-x+1/2,-y
-303 -y+1/2,-z+1/2,-x
-304 -x+1/4,-y+1/4,+z
-305 +z+1/2,-x+1/4,-y+3/4
-306 -y+1/4,+z+1/2,-x+3/4
-307 +z+1/4,-x,+y+1/4
-308 +y+3/4,+z+1/4,-x+1/2
-309 -y,+z+1/4,+x+1/4
-310 +x+3/4,-y,+z+3/4
-311 +z+1/4,+x+3/4,-y+1/2
-312 -x,+y+3/4,+z+3/4
-313 -y+1/2,-x+1/2,-z
-314 -z+1/2,-y+1/2,-x
-315 -x+1/2,-z+1/2,-y
-316 -y+1/4,-x+1/4,+z
-317 +z+1/2,-y+1/4,-x+3/4
-318 -x+1/4,+z+1/2,-y+3/4
-319 +z+1/4,-y,+x+1/4
-320 +x+3/4,+z+1/4,-y+1/2
-321 -x,+z+1/4,+y+1/4
-322 +y+3/4,-x,+z+3/4
-323 +z+1/4,+y+3/4,-x+1/2
-324 -y,+x+3/4,+z+3/4
loop_
_atom_site_type_symbol
_atom_site_label
_atom_site_fract_x
_atom_site_fract_y
_atom_site_fract_z
_atom_site_occupancy
_atom_site_thermal_displace_type
_atom_site_U_iso_or_equiv
_atom_site_symmetry_multiplicity
Li LI1 0.125 0.125 0.125 1.0 Uiso 0.01 8
Ni NI2 0.5 0.5 0.5 0.25 Uiso 0.01 16
Ti TI3 0.5 0.5 0.5 0.75 Uiso 0.01 16
O O4 0.264 0.264 0.264 1.0 Uiso 0.01 32
loop_
_atom_type_symbol
_atom_type_number_in_cell
Ti 12.0
O 32.0
Li 8.0
Ni 4.0
loop_
_geom_angle_atom_site_label_1
_geom_angle_atom_site_label_2
_geom_angle_atom_site_label_3
_geom_angle
_geom_angle_site_symmetry_1
_geom_angle_site_symmetry_2
_geom_angle_site_symmetry_3
_geom_angle_publ_flag
? ? ? ? ? ? ? ?
loop_
_geom_bond_atom_site_label_1
_geom_bond_atom_site_label_2
_geom_bond_distance
_geom_bond_site_symmetry_1
_geom_bond_site_symmetry_2
_geom_bond_publ_flag
? ? ? ? ? ?
loop_
_pd_block_diffractogram_id
2009-10-12T16:58|CENTRO_IONICO_OCC1B_H_01|g|Id09
2009-10-12T16:58|CENTRO_IONICO_OCC1B_H_02|g|Id31
