#------------------------------------------------------------------------------
#$Date: 2016-02-14 06:40:26 +0200 (Sun, 14 Feb 2016) $
#$Revision: 176432 $
#$URL: svn://www.crystallography.net/cod/cif/2/10/43/2104359.cif $
#------------------------------------------------------------------------------
#
# This file is available in the Crystallography Open Database (COD),
# http://www.crystallography.net/. The original data for this entry
# were provided by IUCr Journals, http://journals.iucr.org/.
#
# The file may be used within the scientific community so long as
# proper attribution is given to the journal article from which the
# data were obtained.
#
data_2104359
loop_
_publ_author_name
'Friese, Karen'
'Kanke, Yasushi'
'Grzechnik, Andrzej'
_publ_section_title
;
 Characterization of the pressure-induced second-order phase transition
 in the mixed-valence vanadate BaV~6~O~11~
;
_journal_coeditor_code           EB5003
_journal_issue                   3
_journal_name_full               'Acta Crystallographica Section B'
_journal_page_first              326
_journal_page_last               333
_journal_paper_doi               10.1107/S010876810901444X
_journal_volume                  65
_journal_year                    2009
_chemical_formula_sum            'Ba O11 V6'
_chemical_formula_weight         619
_chemical_name_common            Bariumvanadate
_chemical_name_systematic        ' ?'
_space_group_IT_number           186
_symmetry_cell_setting           hexagonal
_symmetry_space_group_name_Hall  'P 6c -2c'
_symmetry_space_group_name_H-M   'P 63 m c'
_cell_angle_alpha                90
_cell_angle_beta                 90
_cell_angle_gamma                120
_cell_formula_units_Z            2
_cell_length_a                   5.775(3)
_cell_length_b                   5.775(3)
_cell_length_c                   13.238(4)
_cell_measurement_reflns_used    684
_cell_measurement_temperature    293
_cell_measurement_theta_max      28.5
_cell_measurement_theta_min      3.07
_cell_volume                     382.3(3)
_computing_cell_refinement       X-Area
_computing_data_collection       X-Area
_computing_data_reduction        'Jana2006, Absorb V6.1'
_computing_publication_material
'Jana2006 (Petricek, Dusek & Palatinus, 2006)'
_computing_structure_refinement
'Jana2006 (Petricek, Dusek & Palatinus, 2006)'
_diffrn_ambient_temperature      293
_diffrn_measured_fraction_theta_full 0.74
_diffrn_measurement_device_type  IPDS-2T
_diffrn_measurement_method       \omega-scans
_diffrn_radiation_source         'X-ray tube'
_diffrn_radiation_type           'Mo K\a'
_diffrn_radiation_wavelength     0.71073
_diffrn_reflns_av_R_equivalents  0.0622
_diffrn_reflns_av_sigmaI/netI    0.1421
_diffrn_reflns_limit_h_max       6
_diffrn_reflns_limit_h_min       -7
_diffrn_reflns_limit_k_max       6
_diffrn_reflns_limit_k_min       -6
_diffrn_reflns_limit_l_max       17
_diffrn_reflns_limit_l_min       -16
_diffrn_reflns_number            1016
_diffrn_reflns_reduction_process Jana2006
_diffrn_reflns_theta_full        25.61
_diffrn_reflns_theta_max         27.96
_diffrn_reflns_theta_min         3.08
_exptl_absorpt_coefficient_mu    12.14
_exptl_absorpt_correction_T_max  0.2182
_exptl_absorpt_correction_T_min  0.1726
_exptl_absorpt_correction_type   numerical
_exptl_absorpt_process_details   Jana2006
_exptl_crystal_colour            black
_exptl_crystal_density_diffrn    5.375(4)
_exptl_crystal_description       prismatic
_exptl_crystal_F_000             564
_exptl_crystal_size_max          0.1
_exptl_crystal_size_mid          0.08
_exptl_crystal_size_min          0.06
_refine_diff_density_max         2.69
_refine_diff_density_min         -1.92
_refine_ls_extinction_coef       0
_refine_ls_extinction_method
'B-C type 1 Gaussian isotropic (Becker & Coppens, 1974)'
_refine_ls_goodness_of_fit_ref   0.75
_refine_ls_number_constraints    5
_refine_ls_number_parameters     17
_refine_ls_number_reflns         229
_refine_ls_number_restraints     0
_refine_ls_R_factor_all          0.0891
_refine_ls_R_factor_gt           0.0284
_refine_ls_shift/su_max          0.0070
_refine_ls_shift/su_mean         0.0023
_refine_ls_structure_factor_coef F
_refine_ls_weighting_details     w=1/(\s^2^(F)+0.0001F^2^)
_refine_ls_weighting_scheme      sigma
_refine_ls_wR_factor_gt          0.0193
_refine_ls_wR_factor_ref         0.0253
_reflns_number_gt                108
_reflns_number_total             229
_reflns_threshold_expression     I>3\s(I)
_cod_data_source_file            eb5003.cif
_cod_data_source_block           III
_cod_original_sg_symbol_Hall     'P 6c;-2c'
_cod_original_formula_sum        'Ba1 O11 V6'
_cod_database_code               2104359
loop_
_symmetry_equiv_pos_site_id
_symmetry_equiv_pos_as_xyz
1 x,y,z
2 -y,x-y,z
3 -x+y,-x,z
4 -x,-y,z+1/2
5 y,-x+y,z+1/2
6 x-y,x,z+1/2
7 -y,-x,z
8 -x+y,y,z
9 x,x-y,z
10 y,x,z+1/2
11 x-y,-y,z+1/2
12 -x,-x+y,z+1/2
loop_
_atom_site_type_symbol
_atom_site_label
_atom_site_fract_x
_atom_site_fract_y
_atom_site_fract_z
_atom_site_U_iso_or_equiv
_atom_site_adp_type
_atom_site_calc_flag
_atom_site_refinement_flags
_atom_site_occupancy
_atom_site_disorder_assembly
_atom_site_disorder_group
Ba Baa 0.333333 0.666667 0.25 0.0064(5) Uiso d . 1 . .
V V1a 0.4959(10) 0.992(2) 0.5064(6) 0.0080(7) Uiso d . 1 . .
V V2a 0 0 0.3611(11) 0.0060(10) Uiso d . 1 . .
V V2b 0 0 0.1530(11) 0.0060(10) Uiso d . 1 . .
V V3a 0.333333 0.666667 0.7591(10) 0.009(2) Uiso d . 1 . .
O O1a 0.1711(11) 0.342(2) 0.4205(4) 0.0122(16) Uiso d . 1 . .
O O1b 0.1711(11) 0.342(2) 0.0795(4) 0.0122(16) Uiso d . 1 . .
O O2a 0.1455(13) 0.291(3) 0.75 0.015(3) Uiso d . 1 . .
O O3a 0.333333 0.666667 0.9103(7) 0.011(3) Uiso d . 1 . .
O O3b 0.333333 0.666667 -0.4103(7) 0.011(3) Uiso d . 1 . .
loop_
_atom_site_aniso_label
_atom_site_aniso_U_11
_atom_site_aniso_U_22
_atom_site_aniso_U_33
_atom_site_aniso_U_12
_atom_site_aniso_U_13
_atom_site_aniso_U_23
_atom_site_aniso_type_symbol
? ? ? ? ? ? ? ?
loop_
_atom_type_symbol
_atom_type_scat_dispersion_real
_atom_type_scat_dispersion_imag
_atom_type_scat_source
Ba -0.324 2.282 'International Tables Vol C tables 4.2.6.8 and 6.1.1.1'
V 0.301 0.529 'International Tables Vol C tables 4.2.6.8 and 6.1.1.1'
O 0.011 0.006 'International Tables Vol C tables 4.2.6.8 and 6.1.1.1'
loop_
_diffrn_standard_refln_index_h
_diffrn_standard_refln_index_k
_diffrn_standard_refln_index_l
? ? ?
loop_
_geom_angle_atom_site_label_1
_geom_angle_atom_site_label_2
_geom_angle_atom_site_label_3
_geom_angle_site_symmetry_1
_geom_angle_site_symmetry_2
_geom_angle_site_symmetry_3
_geom_angle
_geom_angle_publ_flag
O1a V1a O1a 2_665 . 3_565 90.2(6) yes
O1a V1a O1b 2_665 . 5_565 174.7(7) yes
O1a V1a O1b 2_665 . 6_665 87.8(5) yes
O1a V1a O3a 2_665 . 4_674 89.2(4) yes
O1a V1a O3b 2_665 . 1_556 89.0(6) yes
O1a V1a O1b 3_565 . 5_565 87.8(6) yes
O1a V1a O1b 3_565 . 6_665 174.7(5) yes
O1a V1a O3a 3_565 . 4_674 89.2(4) yes
O1a V1a O3b 3_565 . 1_556 89.0(3) yes
O1b V1a O1b 5_565 . 6_665 93.6(6) yes
O1b V1a O3a 5_565 . 4_674 85.8(6) yes
O1b V1a O3b 5_565 . 1_556 95.9(5) yes
O1b V1a O3a 6_665 . 4_674 85.8(3) yes
O1b V1a O3b 6_665 . 1_556 95.9(5) yes
O3a V1a O3b 4_674 . 1_556 177.4(6) yes
O1a V2a O1a . . 2_555 103.8(6) yes
O1a V2a O1a . . 3_555 103.8(6) yes
O1a V2a O2a . . 4_554 159.4(8) yes
O1a V2a O2a . . 5_554 88.7(4) yes
O1a V2a O2a . . 6_554 88.7(4) yes
O1a V2a O1a 2_555 . 3_555 103.8(7) yes
O1a V2a O2a 2_555 . 4_554 88.7(4) yes
O1a V2a O2a 2_555 . 5_554 159.4(8) yes
O1a V2a O2a 2_555 . 6_554 88.7(5) yes
O1a V2a O2a 3_555 . 4_554 88.7(4) yes
O1a V2a O2a 3_555 . 5_554 88.7(6) yes
O1a V2a O2a 3_555 . 6_554 159.4(8) yes
O2a V2a O2a 4_554 . 5_554 75.1(5) yes
O2a V2a O2a 4_554 . 6_554 75.1(6) yes
O2a V2a O2a 5_554 . 6_554 75.1(7) yes
O1b V2b O1b . . 2_555 97.7(6) yes
O1b V2b O1b . . 3_555 97.7(6) yes
O1b V2b O2a . . 4_554 168.2(8) yes
O1b V2b O2a . . 5_554 90.1(4) yes
O1b V2b O2a . . 6_554 90.1(3) yes
O1b V2b O1b 2_555 . 3_555 97.7(7) yes
O1b V2b O2a 2_555 . 4_554 90.1(3) yes
O1b V2b O2a 2_555 . 5_554 168.2(8) yes
O1b V2b O2a 2_555 . 6_554 90.1(5) yes
O1b V2b O2a 3_555 . 4_554 90.1(4) yes
O1b V2b O2a 3_555 . 5_554 90.1(6) yes
O1b V2b O2a 3_555 . 6_554 168.2(8) yes
O2a V2b O2a 4_554 . 5_554 81.0(6) yes
O2a V2b O2a 4_554 . 6_554 81.0(6) yes
O2a V2b O2a 5_554 . 6_554 81.0(8) yes
O2a V3a O2a . . 2_665 119.6(6) yes
O2a V3a O2a . . 3_565 119.6(4) yes
O2a V3a O3a . . . 93.7(4) yes
O2a V3a O3b . . 1_556 86.3(4) yes
O2a V3a O2a 2_665 . 3_565 119.6(6) yes
O2a V3a O3a 2_665 . . 93.7(4) yes
O2a V3a O3b 2_665 . 1_556 86.3(4) yes
O2a V3a O3a 3_565 . . 93.7(4) yes
O2a V3a O3b 3_565 . 1_556 86.3(4) yes
O3a V3a O3b . . 1_556 180 yes
V1a O1a V1a 2_665 . 3_565 90.5(5) yes
V1a O1a V2a 2_665 . . 127.6(4) yes
V1a O1a V2a 3_565 . . 127.6(7) yes
V1a O1b V1a 5_454 . 6_654 100.2(5) yes
V1a O1b V2b 5_454 . . 126.5(4) yes
V1a O1b V2b 6_654 . . 126.5(7) yes
V2a O2a V2b 4_555 . 4_555 86.7(7) yes
V2a O2a V3a 4_555 . . 131.0(6) yes
V2b O2a V3a 4_555 . . 142.2(6) yes
V1a O3a V1a 4_675 . 5_455 88.0(4) yes
V1a O3a V1a 4_675 . 6_655 88.0(4) yes
V1a O3a V3a 4_675 . . 126.7(3) yes
V1a O3a V1a 5_455 . 6_655 88.0(5) yes
V1a O3a V3a 5_455 . . 126.7(3) yes
V1a O3a V3a 6_655 . . 126.7(3) yes
V1a O3b V1a 1_554 . 2_664 91.6(5) yes
V1a O3b V1a 1_554 . 3_564 91.6(5) yes
V1a O3b V3a 1_554 . 1_554 124.1(3) yes
V1a O3b V1a 2_664 . 3_564 91.6(6) yes
V1a O3b V3a 2_664 . 1_554 124.1(3) yes
V1a O3b V3a 3_564 . 1_554 124.1(4) yes
loop_
_geom_bond_atom_site_label_1
_geom_bond_atom_site_label_2
_geom_bond_site_symmetry_1
_geom_bond_site_symmetry_2
_geom_bond_distance
_geom_bond_publ_flag
Baa O1a . . 2.780(8) yes
Baa O1a . 2_665 2.780(8) yes
Baa O1a . 3_565 2.780(9) yes
Baa O1b . . 2.780(8) yes
Baa O1b . 2_665 2.780(8) yes
Baa O1b . 3_565 2.780(9) yes
Baa O2a . 4_564 2.895(12) yes
Baa O2a . 4_664 2.895(10) yes
Baa O2a . 5_554 2.895(18) yes
Baa O2a . 5_564 2.895(19) yes
Baa O2a . 6_554 2.895(10) yes
Baa O2a . 6_664 2.895(11) yes
V1a V1a . 2_665 2.817(12) yes
V1a V1a . 2_775 2.958(12) yes
V1a V1a . 3_565 2.817(15) yes
V1a V1a . 3_575 2.958(15) yes
V1a O1a . 2_665 1.983(17) yes
V1a O1a . 3_565 1.983(12) yes
V1a O1b . 5_565 1.927(18) yes
V1a O1b . 6_665 1.927(12) yes
V1a O3a . 4_674 2.130(11) yes
V1a O3b . 1_556 1.965(11) yes
V2a V2b . . 2.76(2) yes
V2a O1a . . 1.883(12) yes
V2a O1a . 2_555 1.883(12) yes
V2a O1a . 3_555 1.883(14) yes
V2a O2a . 4_554 2.069(14) yes
V2a O2a . 5_554 2.069(14) yes
V2a O2a . 6_554 2.069(15) yes
V2b O1b . . 1.969(12) yes
V2b O1b . 2_555 1.969(12) yes
V2b O1b . 3_555 1.969(14) yes
V2b O2a . 4_554 1.941(14) yes
V2b O2a . 5_554 1.941(14) yes
V2b O2a . 6_554 1.941(15) yes
V3a O2a . . 1.883(13) yes
V3a O2a . 2_665 1.883(13) yes
V3a O2a . 3_565 1.882(16) yes
V3a O3a . . 2.001(17) yes
V3a O3b . 1_556 2.242(17) yes
O1a O1a . 2_555 2.965(13) yes
O1a O1a . 2_665 2.810(13) yes
O1a O1a . 3_555 2.965(17) yes
O1a O1a . 3_565 2.810(17) yes
O1a O1b . 5_555 2.713(14) yes
O1a O1b . 6_555 2.713(11) yes
O1a O2a . 5_554 2.766(14) yes
O1a O2a . 6_554 2.766(9) yes
O1a O3a . 4_564 2.891(10) yes
O1a O3a . 4_664 2.891(10) yes
O1a O3b . 1_556 2.766(11) yes
O1b O1b . 2_555 2.965(13) yes
O1b O1b . 2_665 2.810(13) yes
O1b O1b . 3_555 2.965(17) yes
O1b O1b . 3_565 2.810(17) yes
O1b O2a . 5_554 2.766(14) yes
O1b O2a . 6_554 2.766(9) yes
O1b O3a . 1_554 2.766(11) yes
O1b O3b . 4_565 2.891(10) yes
O1b O3b . 4_665 2.891(10) yes
O2a O2a . 2_555 2.521(15) yes
O2a O2a . 3_555 2.521(19) yes
O2a O3a . . 2.834(11) yes
O2a O3b . 1_556 2.834(11) yes
loop_
_refln_index_h
_refln_index_k
_refln_index_l
0 2 -16
0 1 -15
0 2 -14
-1 3 -14
0 1 -13
0 2 -13
-1 3 -13
-1 4 -13
0 4 -13
-1 2 -12
0 2 -12
-1 4 -12
-1 5 -12
-1 3 -11
-1 4 -11
0 0 -10
0 3 -10
-1 4 -10
0 4 -10
-1 5 -10
0 1 -9
-1 4 -9
0 4 -9
-1 5 -9
0 1 -8
-1 2 -8
0 2 -8
0 3 -8
0 4 -8
-1 5 -8
0 5 -8
0 2 -7
-1 3 -7
-1 4 -7
0 4 -7
0 5 -7
0 0 -6
0 2 -6
-1 3 -6
0 3 -6
-2 5 -6
-1 5 -6
0 5 -6
-1 6 -6
0 6 -6
0 1 -5
-1 3 -5
0 3 -5
0 4 -5
-2 5 -5
-1 5 -5
0 5 -5
-1 6 -5
0 0 -4
0 1 -4
-1 2 -4
-1 3 -4
0 3 -4
-2 4 -4
-1 4 -4
0 5 -4
-1 6 -4
0 6 -4
0 1 -3
0 3 -3
-1 4 -3
0 4 -3
-2 5 -3
-1 5 -3
0 5 -3
0 6 -3
0 0 -2
0 1 -2
-1 2 -2
0 2 -2
0 3 -2
-2 4 -2
-1 4 -2
-2 5 -2
-1 5 -2
-1 6 -2
0 6 -2
0 1 -1
0 2 -1
0 3 -1
-1 4 -1
-2 5 -1
0 5 -1
-1 6 -1
0 1 0
-1 2 0
0 2 0
0 3 0
-1 4 0
0 4 0
-2 5 0
-1 5 0
0 5 0
-1 6 0
0 6 0
0 1 1
0 2 1
0 3 1
-1 4 1
-2 5 1
0 5 1
-2 6 1
-1 6 1
0 6 1
0 0 2
0 1 2
-1 2 2
0 2 2
0 3 2
-1 4 2
-2 5 2
-1 5 2
0 5 2
0 6 2
0 1 3
0 3 3
-1 4 3
0 4 3
-2 5 3
-1 5 3
0 5 3
-2 6 3
0 6 3
-2 7 3
0 0 4
0 1 4
-1 3 4
0 3 4
-2 4 4
-1 4 4
0 4 4
0 5 4
-2 6 4
-1 6 4
0 6 4
-2 7 4
0 1 5
-1 3 5
0 3 5
0 4 5
-2 5 5
-1 5 5
-2 6 5
-1 6 5
0 6 5
0 0 6
0 2 6
-1 3 6
0 3 6
-2 4 6
-2 5 6
-1 5 6
0 5 6
-1 6 6
0 6 6
0 2 7
-1 3 7
-1 4 7
0 4 7
-2 5 7
-1 5 7
-1 6 7
0 6 7
0 0 8
0 1 8
-1 2 8
0 2 8
-1 3 8
0 3 8
-2 4 8
0 4 8
-2 5 8
-1 5 8
-1 6 8
0 1 9
-1 4 9
0 4 9
-2 5 9
-1 5 9
-1 6 9
0 0 10
-1 2 10
0 3 10
-2 4 10
-1 4 10
0 4 10
-2 5 10
-1 5 10
-1 3 11
0 3 11
-1 4 11
0 4 11
-2 5 11
-1 5 11
0 5 11
0 0 12
-1 2 12
0 2 12
-1 3 12
0 3 12
-2 4 12
-1 4 12
0 4 12
-1 5 12
0 1 13
0 2 13
-1 3 13
-1 4 13
0 4 13
0 0 14
0 1 14
-1 2 14
0 2 14
-1 3 14
0 3 14
-2 4 14
-1 4 14
0 1 15
0 2 15
-1 3 15
0 1 16
0 2 16
-1 3 16
0 1 17
