#------------------------------------------------------------------------------
#$Date: 2016-02-20 02:53:41 +0200 (Sat, 20 Feb 2016) $
#$Revision: 176768 $
#$URL: svn://www.crystallography.net/cod/cif/2/10/53/2105331.cif $
#------------------------------------------------------------------------------
#
# This file is available in the Crystallography Open Database (COD),
# http://www.crystallography.net/. The original data for this entry
# were provided by IUCr Journals, http://journals.iucr.org/.
#
# The file may be used within the scientific community so long as
# proper attribution is given to the journal article from which the
# data were obtained.
#
data_2105331
loop_
_publ_author_name
'Thomas, J.O.'
'Farrington, G.C.'
'Edstroem, K.'
_publ_section_title
;
 A single-crystal x-ray diffraction study of the ion exchange of Cd2+ into
 Ag+ beta-alumina
;
_journal_name_full               'Acta Crystallographica B (39,1983-)'
_journal_page_first              643
_journal_page_last               650
_journal_volume                  47
_journal_year                    1991
_chemical_formula_sum            'Ag0.11 Al11 Cd0.555 O17.11'
_chemical_name_systematic
'Silver cadmium aluminium oxide (.1/.6/11/17.1)'
_space_group_IT_number           194
_symmetry_space_group_name_Hall  '-P 6c 2c'
_symmetry_space_group_name_H-M   'P 63/m m c'
_cell_angle_alpha                90
_cell_angle_beta                 90
_cell_angle_gamma                120
_cell_formula_units_Z            2
_cell_length_a                   5.59
_cell_length_b                   5.59
_cell_length_c                   22.396
_cell_volume                     606.073
_citation_journal_id_ASTM        ASBSDK
_cod_data_source_file            silver0-1_14.cif
_cod_data_source_block           Ag0.11Al11Cd0.555O17.11
_cod_original_cell_volume        606.0727
_cod_database_code               2105331
loop_
_symmetry_equiv_pos_as_xyz
x,y,z
x-y,x,z+1/2
-y,x-y,z
-x,-y,z+1/2
-x+y,-x,z
y,-x+y,z+1/2
-y,-x,-z+1/2
x-y,-y,-z
x,x-y,-z+1/2
y,x,-z
-x+y,y,-z+1/2
-x,-x+y,-z
-x,-y,-z
-x+y,-x,-z-1/2
y,-x+y,-z
x,y,-z-1/2
x-y,x,-z
-y,x-y,-z-1/2
y,x,z-1/2
-x+y,y,z
-x,-x+y,z-1/2
-y,-x,z
x-y,-y,z-1/2
x,x-y,z
loop_
_atom_site_label
_atom_site_type_symbol
_atom_site_fract_x
_atom_site_fract_y
_atom_site_fract_z
_atom_site_occupancy
O4 O-2 0.8333 0.1667 0.25 0.037
Ag1 Ag+1 0.6812 0.3188 0.25 0.037
Al3 Al+3 0.3333 0.6667 0.02486 1
O6 O-2 0.15711 0.31422 0.05036 1
Al2 Al+3 -0.16792 -0.33584 0.10709 0.963
O5 O-2 0.27725 -0.27725 0.25 0.3333
Al4 Al+3 0.3333 0.6667 0.17605 1
O1 O-2 0.50265 0.49735 0.14698 1
Al5 Al+3 0 0 0 1
Cd2 Cd+2 0.82949 0.17051 0.2598 0.0155
O2 O-2 0.6667 0.3333 0.05584 1
Cd1 Cd+2 0.84527 0.15473 0.25 0.154
Al1 Al+3 -0.15968 -0.31936 0.1762 0.037
O3 O-2 0 0 0.14366 1
