#------------------------------------------------------------------------------
#$Date: 2016-02-10 12:25:23 +0200 (Wed, 10 Feb 2016) $
#$Revision: 176330 $
#$URL: svn://www.crystallography.net/cod/cif/2/10/57/2105791.cif $
#------------------------------------------------------------------------------
#
# This file is available in the Crystallography Open Database (COD),
# http://www.crystallography.net/. The original data for this entry
# were provided by IUCr Journals, http://journals.iucr.org/.
#
# The file may be used within the scientific community so long as
# proper attribution is given to the journal article from which the
# data were obtained.
#
data_2105791
loop_
_publ_author_name
'Geller, S.'
_publ_section_title
;
 Structures of \a-Mn~2~O~3~, (Mn~0.983~Fe~0.017~)~2~O~3~,
 (Mn~0.37~Fe~0.63~)~2O~3~ and relation to magnetic ordering
;
_journal_coden_ASTM              ACBCAR
_journal_issue                   4
_journal_name_full
;
 Acta Crystallographica, Section B: Structural Crystallography
 and Crystal Chemistry
;
_journal_page_first              821
_journal_page_last               828
_journal_paper_doi               10.1107/S0567740871002966
_journal_volume                  27
_journal_year                    1971
_chemical_formula_structural     'Mn2 O3'
_chemical_formula_sum            'Mn2 O3'
_chemical_name_mineral           'Bixbyite C'
_chemical_name_systematic        'Manganese(III) Oxide - Ht'
_space_group_IT_number           206
_symmetry_Int_Tables_number      206
_symmetry_space_group_name_Hall  '-I 2b 2c 3'
_symmetry_space_group_name_H-M   'I a -3'
_audit_creation_date             1980/01/01
_audit_update_record             2012/08/01
_cell_angle_alpha                90.
_cell_angle_beta                 90.
_cell_angle_gamma                90.
_cell_formula_units_Z            16
_cell_length_a                   9.4146(1)
_cell_length_b                   9.4146(1)
_cell_length_c                   9.4146(1)
_cell_volume                     834.460(15)
_refine_ls_R_factor_all          0.027
_cod_data_source_file            'data_Mn2O3melanie009091.cif'
_cod_data_source_block
/var/www/cod/tmp/uploads/1395932493.01-D290F29E9218B844.cif
_cod_original_cell_volume        834.46
_cod_database_code               2105791
loop_
_symmetry_equiv_pos_site_id
_symmetry_equiv_pos_as_xyz
1 '-z, x, y+1/2'
2 'z, x+1/2, -y'
3 'z+1/2, -x, y'
4 '-z, -x, -y'
5 'y+1/2, -z, x'
6 '-y, z, x+1/2'
7 'y, z+1/2, -x'
8 '-y, -z, -x'
9 'x, y+1/2, -z'
10 'x+1/2, -y, z'
11 '-x, y, z+1/2'
12 '-x, -y, -z'
13 'z, -x, -y+1/2'
14 '-z, -x+1/2, y'
15 '-z+1/2, x, -y'
16 'z, x, y'
17 '-y+1/2, z, -x'
18 'y, -z, -x+1/2'
19 '-y, -z+1/2, x'
20 'y, z, x'
21 '-x, -y+1/2, z'
22 '-x+1/2, y, -z'
23 'x, -y, -z+1/2'
24 'x, y, z'
25 '-z+1/2, x+1/2, y'
26 'z+1/2, x, -y+1/2'
27 'z, -x+1/2, y+1/2'
28 '-z+1/2, -x+1/2, -y+1/2'
29 'y, -z+1/2, x+1/2'
30 '-y+1/2, z+1/2, x'
31 'y+1/2, z, -x+1/2'
32 '-y+1/2, -z+1/2, -x+1/2'
33 'x+1/2, y, -z+1/2'
34 'x, -y+1/2, z+1/2'
35 '-x+1/2, y+1/2, z'
36 '-x+1/2, -y+1/2, -z+1/2'
37 'z+1/2, -x+1/2, -y'
38 '-z+1/2, -x, y+1/2'
39 '-z, x+1/2, -y+1/2'
40 'z+1/2, x+1/2, y+1/2'
41 '-y, z+1/2, -x+1/2'
42 'y+1/2, -z+1/2, -x'
43 '-y+1/2, -z, x+1/2'
44 'y+1/2, z+1/2, x+1/2'
45 '-x+1/2, -y, z+1/2'
46 '-x, y+1/2, -z+1/2'
47 'x+1/2, -y+1/2, -z'
48 'x+1/2, y+1/2, z+1/2'
loop_
_atom_site_label
_atom_site_type_symbol
_atom_site_symmetry_multiplicity
_atom_site_Wyckoff_symbol
_atom_site_fract_x
_atom_site_fract_y
_atom_site_fract_z
_atom_site_occupancy
_atom_site_attached_hydrogens
_atom_site_B_iso_or_equiv
Mn1 Mn3+ 8 a 0 0 0 1. 0 0
Mn2 Mn3+ 24 d 0.28508(9) 0 0.25 1. 0 0
O1 O2- 48 e 0.12913(19) 0.14708(18) -.08347(22) 1. 0 0
loop_
_atom_type_symbol
_atom_type_oxidation_number
Mn3+ 3
O2- -2
loop_
_citation_id
_citation_journal_full
_citation_year
_citation_journal_volume
_citation_page_first
_citation_page_last
_citation_journal_id_ASTM
primary
;
 Acta Crystallographica, Section B: Structural Crystallography
 and Crystal Chemistry
;
1971 27 821 828 ACBCAR
2 'Acta Crystallographica, Section B: Structural Science' 1984 40 76 82 ASBSDK
3 'Phase Transition' 1992 38 127 220 PHTRDP
