#------------------------------------------------------------------------------
#$Date: 2016-02-13 21:28:24 +0200 (Sat, 13 Feb 2016) $
#$Revision: 176429 $
#$URL: svn://www.crystallography.net/cod/cif/2/10/63/2106320.cif $
#------------------------------------------------------------------------------
#
# This file is available in the Crystallography Open Database (COD),
# http://www.crystallography.net/. The original data for this entry
# were provided by IUCr Journals, http://journals.iucr.org/.
#
# The file may be used within the scientific community so long as
# proper attribution is given to the journal article from which the
# data were obtained.
#
data_2106320
loop_
_publ_author_name
'Glazer, A.M.'
'Mabud, S.A.'
'Clarke, R.'
_publ_section_title
;
 Powder profile refinement of lead zirconate titanate at several
 temperatures. I. Pb Zr0.9 Ti0.1 O3
;
_journal_name_full               'Acta Crystallographica B (24,1968-38,1982)'
_journal_page_first              1060
_journal_page_last               1065
_journal_volume                  34
_journal_year                    1978
_chemical_formula_sum            'O3 Pb Ti0.1 Zr0.9'
_chemical_name_systematic        'Pb Zr0.9 Ti0.1 O3'
_space_group_IT_number           221
_symmetry_space_group_name_Hall  '-P 4 2 3'
_symmetry_space_group_name_H-M   'P m -3 m'
_cell_angle_alpha                90
_cell_angle_beta                 90
_cell_angle_gamma                90
_cell_formula_units_Z            1
_cell_length_a                   4.1449
_cell_length_b                   4.1449
_cell_length_c                   4.1449
_cell_volume                     71.210
_citation_journal_id_ASTM        ACBCAR
_cod_data_source_file            Glazer_ACBCAR_1978_1830.cif
_cod_data_source_block           O3Pb1Ti0.1Zr0.9
_cod_original_cell_volume        71.21019
_cod_original_formula_sum        'O3 Pb1 Ti0.1 Zr0.9'
_cod_database_code               2106320
loop_
_symmetry_equiv_pos_as_xyz
x,y,z
-y,x,z
-x,-y,z
y,-x,z
x,-y,-z
y,x,-z
-x,y,-z
-y,-x,-z
z,x,y
-x,z,y
-z,-x,y
x,-z,y
z,-x,-y
x,z,-y
-z,x,-y
-x,-z,-y
y,z,x
y,-z,-x
z,y,-x
-y,z,-x
-z,-y,-x
-y,-z,x
z,-y,x
-z,y,x
-x,-y,-z
y,-x,-z
x,y,-z
-y,x,-z
-x,y,z
-y,-x,z
x,-y,z
y,x,z
-z,-x,-y
x,-z,-y
z,x,-y
-x,z,-y
-z,x,y
-x,-z,y
z,-x,y
x,z,y
-y,-z,-x
-y,z,x
-z,-y,x
y,-z,x
z,y,x
y,z,-x
-z,y,-x
z,-y,-x
loop_
_atom_site_label
_atom_site_type_symbol
_atom_site_fract_x
_atom_site_fract_y
_atom_site_fract_z
_atom_site_occupancy
_atom_site_U_iso_or_equiv
Zr1 Zr+4 0.5 0.5 0.5 0.9 0.0
Ti1 Ti+4 0.5 0.5 0.5 0.1 0.0
O1 O-2 0.5 0.5 0 1 0.0
Pb1 Pb+2 0 0 0 1 0.0
