#------------------------------------------------------------------------------
#$Date: 2016-02-13 21:28:24 +0200 (Sat, 13 Feb 2016) $
#$Revision: 176429 $
#$URL: svn://www.crystallography.net/cod/cif/2/10/61/2106195.cif $
#------------------------------------------------------------------------------
#
# This file is available in the Crystallography Open Database (COD),
# http://www.crystallography.net/. The original data for this entry
# were provided by IUCr Journals, http://journals.iucr.org/.
#
# The file may be used within the scientific community so long as
# proper attribution is given to the journal article from which the
# data were obtained.
#
data_2106195
loop_
_publ_author_name
'Michiue, Y.'
'Onoda, M.'
'Watanabe, M.'
'Brown, F.'
'Kimizuka, N.'
_publ_section_title
;
 Modulated structure of the pseudohexagonal In Fe1-x-4d Tix+3d O3+x/2
 (x=0.61) composite crystal
;
_journal_name_full               'Acta Crystallographica B (39,1983-)'
_journal_page_first              458
_journal_page_last               465
_journal_volume                  57
_journal_year                    2001
_chemical_formula_sum            'Fe0.23 In O2 Ti0.73'
_chemical_name_systematic        'In (Fe0.23 Ti0.73) O2'
_space_group_IT_number           63
_symmetry_space_group_name_Hall  '-C 2c 2c'
_symmetry_space_group_name_H-M   'C c m m'
_cell_angle_alpha                90
_cell_angle_beta                 90
_cell_angle_gamma                90
_cell_formula_units_Z            4
_cell_length_a                   5.835
_cell_length_b                   3.349
_cell_length_c                   12.082
_cell_volume                     236.099
_citation_journal_id_ASTM        ASBSDK
_cod_data_source_file            Michiue_ASBSDK_2001_912.cif
_cod_data_source_block           Fe0.23In1O2Ti0.73
_cod_original_cell_volume        236.0994
_cod_original_sg_symbol_Hall     '-C 2c 2 (y,-x,z)'
_cod_original_formula_sum        'Fe0.23 In1 O2 Ti0.73'
_cod_database_code               2106195
loop_
_symmetry_equiv_pos_as_xyz
x,y,z
-x,-y,z+1/2
-x,y,-z
x,-y,-z+1/2
-x,-y,-z
x,y,-z-1/2
x,-y,z
-x,y,z-1/2
x+1/2,y+1/2,z
-x+1/2,-y+1/2,z+1/2
-x+1/2,y+1/2,-z
x+1/2,-y+1/2,-z+1/2
-x+1/2,-y+1/2,-z
x+1/2,y+1/2,-z-1/2
x+1/2,-y+1/2,z
-x+1/2,y+1/2,z-1/2
loop_
_atom_site_label
_atom_site_type_symbol
_atom_site_fract_x
_atom_site_fract_y
_atom_site_fract_z
_atom_site_occupancy
_atom_site_U_iso_or_equiv
Fe1 Fe 0.334 0 0.25 0.23 0.0
O1 O 0.3317 0 0.0851 1 0.0
Ti1 Ti 0.334 0 0.25 0.73 0.0
In1 In 0 0 0 1 0.0
