#------------------------------------------------------------------------------
#$Date: 2018-09-27 07:13:35 +0300 (Thu, 27 Sep 2018) $
#$Revision: 211196 $
#$URL: file:///home/coder/svn-repositories/cod/cif/2/10/68/2106880.cif $
#------------------------------------------------------------------------------
#
# This file is available in the Crystallography Open Database (COD),
# http://www.crystallography.net/. The original data for this entry
# were provided by IUCr Journals, http://journals.iucr.org/.
#
# The file may be used within the scientific community so long as
# proper attribution is given to the journal article from which the
# data were obtained.
#
data_2106880
loop_
_publ_author_name
'Bartos, A.'
'Lieb, K.P.'
'Wiarda, D.'
'Uhrmacher, M.'
_publ_section_title
;
 Refinement of atomic positions in bixbyite oxides using perturbed angular
 correlation spectroscopy
;
_journal_name_full               'Acta Crystallographica B (39,1983-)'
_journal_page_first              165
_journal_page_last               169
_journal_volume                  49
_journal_year                    1993
_chemical_formula_sum            'Ho2 O3'
_space_group_IT_number           206
_symmetry_space_group_name_Hall  '-I 2b 2c 3'
_symmetry_space_group_name_H-M   'I a -3'
_cell_angle_alpha                90
_cell_angle_beta                 90
_cell_angle_gamma                90
_cell_formula_units_Z            16
_cell_length_a                   10.58
_cell_length_b                   10.58
_cell_length_c                   10.58
_cell_volume                     1184.287
_citation_journal_id_ASTM        ASBSDK
_cod_data_source_file            Bartos_ASBSDK_1993_759.cif
_cod_data_source_block           Ho2O3
_cod_database_code               2106880
loop_
_symmetry_equiv_pos_as_xyz
x,y,z
-x,-y+1/2,z
x,-y,-z+1/2
-x,y+1/2,-z+1/2
z,x,y
-z,-x+1/2,y
z,-x,-y+1/2
-z,x+1/2,-y+1/2
y,z,x
y,-z,-x+1/2
-y,z+1/2,-x+1/2
-y+1/2,-z,x+1/2
-x,-y,-z
x,y-1/2,-z
-x,y,z-1/2
x,-y-1/2,z-1/2
-z,-x,-y
z,x-1/2,-y
-z,x,y-1/2
z,-x-1/2,y-1/2
-y,-z,-x
-y,z,x-1/2
y,-z-1/2,x-1/2
y-1/2,z,-x-1/2
x+1/2,y+1/2,z+1/2
-x+1/2,-y+1,z+1/2
x+1/2,-y+1/2,-z+1
-x+1/2,y+1,-z+1
z+1/2,x+1/2,y+1/2
-z+1/2,-x+1,y+1/2
z+1/2,-x+1/2,-y+1
-z+1/2,x+1,-y+1
y+1/2,z+1/2,x+1/2
y+1/2,-z+1/2,-x+1
-y+1/2,z+1,-x+1
-y+1,-z+1/2,x+1
-x+1/2,-y+1/2,-z+1/2
x+1/2,y,-z+1/2
-x+1/2,y+1/2,z
x+1/2,-y,z
-z+1/2,-x+1/2,-y+1/2
z+1/2,x,-y+1/2
-z+1/2,x+1/2,y
z+1/2,-x,y
-y+1/2,-z+1/2,-x+1/2
-y+1/2,z+1/2,x
y+1/2,-z,x
y,z+1/2,-x
loop_
_atom_site_label
_atom_site_type_symbol
_atom_site_fract_x
_atom_site_fract_y
_atom_site_fract_z
_atom_site_occupancy
_atom_site_U_iso_or_equiv
O1 O-2 0.3908 0.1527 0.3817 1 0.0
Ho2 Ho+3 0.25 0.25 0.25 1 0.0
Ho1 Ho+3 -0.03255 0 0.25 1 0.0
