#------------------------------------------------------------------------------
#$Date: 2015-07-13 22:42:04 +0300 (Mon, 13 Jul 2015) $
#$Revision: 151051 $
#$URL: svn://www.crystallography.net/cod/cif/2/10/65/2106524.cif $
#------------------------------------------------------------------------------
#
# This file is available in the Crystallography Open Database (COD),
# http://www.crystallography.net/. The original data for this entry
# were provided by IUCr Journals, http://journals.iucr.org/.
#
# The file may be used within the scientific community so long as
# proper attribution is given to the journal article from which the
# data were obtained.
#
data_2106524
loop_
_publ_author_name
'Ishizawa, N.'
'Iwai, S.I.'
'Marumo, F.'
_publ_section_title
;
 Compounds with Perovskite-Type Slabs. IV. Ferroelectric Phase Transitions
 in Sr2 (Ta(1-X) Nbx)2 O7 (X ca. 0.12) and Sr2 Ta2 O7
;
_journal_name_full               'Acta Crystallographica B (24,1968-38,1982)'
_journal_page_first              26
_journal_page_last               31
_journal_volume                  37
_journal_year                    1981
_chemical_formula_sum            'Nb0.24 O7 Sr2 Ta1.76'
_chemical_name_systematic        'Sr2 (Ta0.88 Nb0.12)2 O7'
_space_group_IT_number           36
_symmetry_space_group_name_Hall  'C 2c -2'
_symmetry_space_group_name_H-M   'C m c 21'
_cell_angle_alpha                90
_cell_angle_beta                 90
_cell_angle_gamma                90
_cell_formula_units_Z            4
_cell_length_a                   3.961
_cell_length_b                   27.11
_cell_length_c                   5.678
_cell_volume                     609.719
_citation_journal_id_ASTM        ACBCAR
_cod_data_source_file            Ishizawa_ACBCAR_1981_23.cif
_cod_data_source_block           Nb0.24O7Sr2Ta1.76
_cod_original_cell_volume        609.7191
_cod_database_code               2106524
loop_
_symmetry_equiv_pos_as_xyz
x,y,z
-x,-y,z+1/2
-x,y,z
x,-y,z+1/2
x+1/2,y+1/2,z
-x+1/2,-y+1/2,z+1/2
-x+1/2,y+1/2,z
x+1/2,-y+1/2,z+1/2
loop_
_atom_site_label
_atom_site_type_symbol
_atom_site_fract_x
_atom_site_fract_y
_atom_site_fract_z
_atom_site_occupancy
_atom_site_U_iso_or_equiv
Ta2 Ta+5 0.5 0.33964 0.7373 0.88 0.0
Ta1 Ta+5 0.5 0.44445 0.25 0.88 0.0
O6 O-2 0 0.397 0.015 1 0.0
O2 O-2 0.5 0.403 0.524 1 0.0
O3 O-2 0.5 0.295 0.511 1 0.0
Sr2 Sr+2 0 0.28911 0.229 1 0.0
Nb2 Nb+5 0.5 0.33964 0.7373 0.12 0.0
Sr1 Sr+2 0 0.44707 0.748 1 0.0
O4 O-2 0 0.454 0.285 1 0.0
O1 O-2 0.5 0.503 0.514 1 0.0
Nb1 Nb+5 0.5 0.44445 0.25 0.12 0.0
O7 O-2 0.5 0.292 0.989 1 0.0
O5 O-2 0 0.352 0.709 1 0.0
