#------------------------------------------------------------------------------
#$Date: 2016-01-01 14:03:51 +0200 (Fri, 01 Jan 2016) $
#$Revision: 172191 $
#$URL: svn://www.crystallography.net/cod/cif/2/10/73/2107317.cif $
#------------------------------------------------------------------------------
#
# This file is available in the Crystallography Open Database (COD),
# http://www.crystallography.net/. The original data for this entry
# were provided by IUCr Journals, http://journals.iucr.org/.
#
# The file may be used within the scientific community so long as
# proper attribution is given to the journal article from which the
# data were obtained.
#
data_2107317
loop_
_publ_author_name
'Smolin, Yu.I.'
'Shepelev, Yu.F.'
'Anderson, A.A.'
_publ_section_title
;
 Atomic scale mechanism of CaX zeolite dehydration
;
_journal_name_full               'Acta Crystallographica B (39,1983-)'
_journal_page_first              124
_journal_page_last               128
_journal_volume                  45
_journal_year                    1989
_chemical_formula_sum            'Al96 Ca49.1 O384 Si96'
_chemical_name_systematic        'Ca49.1 (Al96 Si96 O384)'
_space_group_IT_number           203
_symmetry_space_group_name_Hall  '-F 2uv 2vw 3'
_symmetry_space_group_name_H-M   'F d -3 :2'
_cell_angle_alpha                90
_cell_angle_beta                 90
_cell_angle_gamma                90
_cell_formula_units_Z            1
_cell_length_a                   25.06
_cell_length_b                   25.06
_cell_length_c                   25.06
_cell_volume                     15737.770
_citation_journal_id_ASTM        ASBSDK
_cod_data_source_file            Smolin_ASBSDK_1989_674.cif
_cod_data_source_block           Al96Ca49.1O384Si96
_cod_original_cell_volume        15737.77
_cod_database_code               2107317
loop_
_symmetry_equiv_pos_as_xyz
x,y,z
-x+1/4,-y+1/4,z
x,-y+1/4,-z+1/4
-x+1/4,y,-z+1/4
z,x,y
-z+1/4,-x+1/4,y
z,-x+1/4,-y+1/4
-z+1/4,x,-y+1/4
y,z,x
y,-z+1/4,-x+1/4
-y+1/4,z,-x+1/4
-y+1/4,-z+1/4,x
-x,-y,-z
x-1/4,y-1/4,-z
-x,y-1/4,z-1/4
x-1/4,-y,z-1/4
-z,-x,-y
z-1/4,x-1/4,-y
-z,x-1/4,y-1/4
z-1/4,-x,y-1/4
-y,-z,-x
-y,z-1/4,x-1/4
y-1/4,-z,x-1/4
y-1/4,z-1/4,-x
x,y+1/2,z+1/2
-x+1/4,-y+3/4,z+1/2
x,-y+3/4,-z+3/4
-x+1/4,y+1/2,-z+3/4
z,x+1/2,y+1/2
-z+1/4,-x+3/4,y+1/2
z,-x+3/4,-y+3/4
-z+1/4,x+1/2,-y+3/4
y,z+1/2,x+1/2
y,-z+3/4,-x+3/4
-y+1/4,z+1/2,-x+3/4
-y+1/4,-z+3/4,x+1/2
-x,-y+1/2,-z+1/2
x-1/4,y+1/4,-z+1/2
-x,y+1/4,z+1/4
x-1/4,-y+1/2,z+1/4
-z,-x+1/2,-y+1/2
z-1/4,x+1/4,-y+1/2
-z,x+1/4,y+1/4
z-1/4,-x+1/2,y+1/4
-y,-z+1/2,-x+1/2
-y,z+1/4,x+1/4
y-1/4,-z+1/2,x+1/4
y-1/4,z+1/4,-x+1/2
x+1/2,y,z+1/2
-x+3/4,-y+1/4,z+1/2
x+1/2,-y+1/4,-z+3/4
-x+3/4,y,-z+3/4
z+1/2,x,y+1/2
-z+3/4,-x+1/4,y+1/2
z+1/2,-x+1/4,-y+3/4
-z+3/4,x,-y+3/4
y+1/2,z,x+1/2
y+1/2,-z+1/4,-x+3/4
-y+3/4,z,-x+3/4
-y+3/4,-z+1/4,x+1/2
-x+1/2,-y,-z+1/2
x+1/4,y-1/4,-z+1/2
-x+1/2,y-1/4,z+1/4
x+1/4,-y,z+1/4
-z+1/2,-x,-y+1/2
z+1/4,x-1/4,-y+1/2
-z+1/2,x-1/4,y+1/4
z+1/4,-x,y+1/4
-y+1/2,-z,-x+1/2
-y+1/2,z-1/4,x+1/4
y+1/4,-z,x+1/4
y+1/4,z-1/4,-x+1/2
x+1/2,y+1/2,z
-x+3/4,-y+3/4,z
x+1/2,-y+3/4,-z+1/4
-x+3/4,y+1/2,-z+1/4
z+1/2,x+1/2,y
-z+3/4,-x+3/4,y
z+1/2,-x+3/4,-y+1/4
-z+3/4,x+1/2,-y+1/4
y+1/2,z+1/2,x
y+1/2,-z+3/4,-x+1/4
-y+3/4,z+1/2,-x+1/4
-y+3/4,-z+3/4,x
-x+1/2,-y+1/2,-z
x+1/4,y+1/4,-z
-x+1/2,y+1/4,z-1/4
x+1/4,-y+1/2,z-1/4
-z+1/2,-x+1/2,-y
z+1/4,x+1/4,-y
-z+1/2,x+1/4,y-1/4
z+1/4,-x+1/2,y-1/4
-y+1/2,-z+1/2,-x
-y+1/2,z+1/4,x-1/4
y+1/4,-z+1/2,x-1/4
y+1/4,z+1/4,-x
loop_
_atom_site_label
_atom_site_type_symbol
_atom_site_fract_x
_atom_site_fract_y
_atom_site_fract_z
_atom_site_occupancy
_atom_site_U_iso_or_equiv
Ca3 Ca+2 0.07 0.07 0.07 0.08 0.0
O4 O-2 -0.0596 0.0785 0.173 1 0.0
Ca2 Ca+2 0.2238 0.2238 0.2238 0.91 0.0
O1 O-2 -0.1109 0.0007 0.1075 1 0.0
Ca4 Ca+2 0.122 -0.034 0.777 0.03 0.0
O2 O-2 -0.004 -0.0031 0.1424 1 0.0
Si1 Si+4 -0.0545 0.123 0.0345 1 0.0
Al1 Al+3 -0.056 0.0366 0.1216 1 0.0
O3 O-2 -0.0354 0.0655 0.0636 1 0.0
Ca1 Ca+2 0 0 0 0.91 0.0
