#------------------------------------------------------------------------------
#$Date: 2015-10-14 13:08:37 +0300 (Wed, 14 Oct 2015) $
#$Revision: 168310 $
#$URL: svn://www.crystallography.net/cod/cif/2/10/72/2107208.cif $
#------------------------------------------------------------------------------
#
# This file is available in the Crystallography Open Database (COD),
# http://www.crystallography.net/. The original data for this entry
# were provided by IUCr Journals, http://journals.iucr.org/.
#
# The file may be used within the scientific community so long as
# proper attribution is given to the journal article from which the
# data were obtained.
#
data_2107208
loop_
_publ_author_name
'Abrahams, I.'
'Bruce, P.G.'
_publ_section_title
;
 Defect clustering in the superionic conductor lithium germanium vanadate
;
_journal_name_full               'Acta Crystallographica B (39,1983-)'
_journal_page_first              696
_journal_page_last               701
_journal_volume                  47
_journal_year                    1991
_chemical_formula_sum            'Ge0.5 Li3.504 O4 V0.5'
_chemical_name_systematic        'Li3.504 (Ge.5 V.5) O4'
_space_group_IT_number           62
_symmetry_space_group_name_Hall  '-P 2ac 2n'
_symmetry_space_group_name_H-M   'P n m a'
_cell_angle_alpha                90
_cell_angle_beta                 90
_cell_angle_gamma                90
_cell_formula_units_Z            4
_cell_length_a                   10.9326
_cell_length_b                   6.3016
_cell_length_c                   5.1593
_cell_volume                     355.439
_citation_journal_id_ASTM        ASBSDK
_cod_data_source_file            Abrahams_ASBSDK_1991_1615.cif
_cod_data_source_block           Ge0.5Li3.504O4V0.5
_cod_database_code               2107208
loop_
_symmetry_equiv_pos_as_xyz
x,y,z
-x+1/2,-y,z+1/2
x+1/2,-y+1/2,-z+1/2
-x,y+1/2,-z
-x,-y,-z
x-1/2,y,-z-1/2
-x-1/2,y-1/2,z-1/2
x,-y-1/2,z
loop_
_atom_site_label
_atom_site_type_symbol
_atom_site_fract_x
_atom_site_fract_y
_atom_site_fract_z
_atom_site_occupancy
_atom_site_U_iso_or_equiv
O1 O-2 0.3377 0.0252 0.2228 1 0.0
Ge1 Ge+4 0.4121 0.25 0.3389 0.5 0.0
Li5 Li+1 0.023 0.537 0.459 0.152 0.0
O3 O-2 0.0618 0.25 0.2766 1 0.0
Li2 Li+1 0.1667 -0.0049 0.323 0.75 0.0
V1 V+5 0.4121 0.25 0.3389 0.5 0.0
O2 O-2 0.0881 0.75 0.1722 1 0.0
Li3 Li+1 0.163 0.03 0.173 0.25 0.0
Li1 Li+1 0.4257 0.75 0.177 1 0.0
Li4 Li+1 0.216 0.25 -0.027 0.2 0.0
