#------------------------------------------------------------------------------
#$Date: 2015-10-13 16:40:53 +0300 (Tue, 13 Oct 2015) $
#$Revision: 167192 $
#$URL: svn://www.crystallography.net/cod/cif/2/10/71/2107151.cif $
#------------------------------------------------------------------------------
#
# This file is available in the Crystallography Open Database (COD),
# http://www.crystallography.net/. The original data for this entry
# were provided by IUCr Journals, http://journals.iucr.org/.
#
# The file may be used within the scientific community so long as
# proper attribution is given to the journal article from which the
# data were obtained.
#
data_2107151
loop_
_publ_author_name
'Sauerbrei, E.E.'
'Calvo, C.'
'Faggiani, R.'
_publ_section_title
;
 Refinement of the crystal structures of Co V2 O8 and Ni V2 O8
;
_journal_name_full               'Acta Crystallographica B (24,1968-38,1982)'
_journal_page_first              2304
_journal_page_last               2306
_journal_volume                  29
_journal_year                    1973
_chemical_formula_sum            'Co3 O8 V2'
_chemical_name_systematic        'Co3 V2 O8'
_space_group_IT_number           64
_symmetry_space_group_name_Hall  '-C 2ac 2'
_symmetry_space_group_name_H-M   'C m c a'
_cell_angle_alpha                90
_cell_angle_beta                 90
_cell_angle_gamma                90
_cell_formula_units_Z            4
_cell_length_a                   6.03
_cell_length_b                   11.486
_cell_length_c                   8.312
_cell_volume                     575.694
_citation_journal_id_ASTM        ACBCAR
_cod_data_source_file            Sauerbrei_ACBCAR_1973_1337.cif
_cod_data_source_block           Co3O8V2
_cod_database_code               2107151
loop_
_symmetry_equiv_pos_as_xyz
x,y,z
-x+1/2,-y,z+1/2
x,-y,-z
-x+1/2,y,-z+1/2
-x,-y,-z
x-1/2,y,-z-1/2
-x,y,z
x-1/2,-y,z-1/2
x+1/2,y+1/2,z
-x+1,-y+1/2,z+1/2
x+1/2,-y+1/2,-z
-x+1,y+1/2,-z+1/2
-x+1/2,-y+1/2,-z
x,y+1/2,-z-1/2
-x+1/2,y+1/2,z
x,-y+1/2,z-1/2
loop_
_atom_site_label
_atom_site_type_symbol
_atom_site_fract_x
_atom_site_fract_y
_atom_site_fract_z
_atom_site_occupancy
_atom_site_U_iso_or_equiv
Co1 Co+2 0 0 0 1 0.0
O1 O-2 0 0.2503 0.229 1 0.0
O2 O-2 0 0.001 0.2447 1 0.0
Co2 Co+2 0.25 0.1329 0.25 1 0.0
O3 O-2 0.2703 0.1185 0.9983 1 0.0
V1 V+5 0 0.3773 0.1204 1 0.0
