#------------------------------------------------------------------------------
#$Date: 2021-02-05 16:51:37 +0200 (Fri, 05 Feb 2021) $
#$Revision: 261792 $
#$URL: file:///home/coder/svn-repositories/cod/cif/2/10/87/2108765.cif $
#------------------------------------------------------------------------------
#
# This file is available in the Crystallography Open Database (COD),
# http://www.crystallography.net/. The original data for this entry
# were provided by IUCr Journals, http://journals.iucr.org/.
#
# The file may be used within the scientific community so long as
# proper attribution is given to the journal article from which the
# data were obtained.
#
data_2108765
loop_
_publ_author_name
'Redhammer, G\"unther J.'
'Meven, Martin'
'Ganschow, Steffen'
'Tippelt, Gerold'
'Rettenwander, Daniel'
_publ_section_title
;
 Single-crystal neutron and X-ray diffraction study of garnet-type
 solid-state electrolyte Li~6~La~3~ZrTaO~12~: an <i>in situ</i>
 temperature-dependence investigation (2.5 {\/leq} <i>T</i> {\/leq} 873K)
;
_journal_coeditor_code           RA5085SUP1
_journal_issue                   1
_journal_name_full               'Acta Crystallographica Section B'
_journal_page_first              123
_journal_page_last               130
_journal_paper_doi               10.1107/S2052520620016145
_journal_volume                  77
_journal_year                    2021
_chemical_formula_moiety         'Li6  O12  Ta1  Zr1  La3'
_chemical_formula_sum            'La3 Li6.27 O12 Ta1.09 Zr0.91'
_chemical_formula_weight         932.8
_space_group_IT_number           230
_space_group_name_Hall           '-I 4bd 2c 3'
_space_group_name_H-M_alt        'I a -3 d'
_symmetry_cell_setting           cubic
_symmetry_Int_Tables_number      230
_symmetry_space_group_name_Hall  '-I 4bd 2c 3'
_symmetry_space_group_name_H-M   'I a -3 d'
_audit_conform_dict_location     ftp://ftp.iucr.org/pub/cif_core.dic
_audit_conform_dict_name         cif_core.dic
_audit_conform_dict_version      2.4.5
_audit_creation_date             2019-03-09T18:44:00-00:00
_audit_creation_method           'WinGX routine CIF_UPDATE'
_cell_angle_alpha                90
_cell_angle_beta                 90
_cell_angle_gamma                90
_cell_formula_units_Z            8
_cell_length_a                   12.8775(2)
_cell_length_b                   12.8775(2)
_cell_length_c                   12.8775(2)
_cell_measurement_reflns_used    25
_cell_measurement_temperature    300(1)
_cell_measurement_theta_max      39.99
_cell_measurement_theta_min      4.33
_cell_measurement_wavelength     0.793
_cell_volume                     2135.48(6)
_computing_cell_refinement       'Bruker APEX2 (Bruker, 2012)'
_computing_data_collection       'Bruker APEX2 (Bruker, 2012)'
_computing_data_reduction        'Bruker APEX2 (Bruker, 2012)'
_computing_molecular_graphics    'Ortep for Windows (Farrugia, 2012)'
_computing_publication_material  'WinGX publication routines (Farrugia, 2012)'
_computing_structure_refinement  'SHELXL (Sheldrick, 2015)'
_computing_structure_solution    'SHELXL-2014/7 (Sheldrick, 2014)'
_diffrn_ambient_temperature      300(1)
_diffrn_detector_type            CCD
_diffrn_measured_fraction_theta_full 1
_diffrn_measured_fraction_theta_max 0.993
_diffrn_measurement_device       'four-circle diffractometer'
_diffrn_measurement_device_type  'Huber Eulerian Cradle'
_diffrn_measurement_method
'rotation, \w-scans at 4 different \f positions'
_diffrn_radiation_monochromator  'Ge 422'
_diffrn_radiation_probe          'MLZ SR9B (hot source)'
_diffrn_radiation_type           neutron
_diffrn_radiation_wavelength     0.793
_diffrn_reflns_av_R_equivalents  0.0278
_diffrn_reflns_av_unetI/netI     0.0637
_diffrn_reflns_Laue_measured_fraction_full 1
_diffrn_reflns_Laue_measured_fraction_max 0.993
_diffrn_reflns_limit_h_max       20
_diffrn_reflns_limit_h_min       1
_diffrn_reflns_limit_k_max       14
_diffrn_reflns_limit_k_min       -14
_diffrn_reflns_limit_l_max       14
_diffrn_reflns_limit_l_min       0
_diffrn_reflns_number            674
_diffrn_reflns_point_group_measured_fraction_full 1
_diffrn_reflns_point_group_measured_fraction_max 0.993
_diffrn_reflns_theta_full        28.411
_diffrn_reflns_theta_max         39.899
_diffrn_reflns_theta_min         4.325
_diffrn_standards_number         0
_exptl_absorpt_coefficient_mu    0.034
_exptl_absorpt_correction_type   none
_exptl_crystal_colour            colourless
_exptl_crystal_density_diffrn    5.803
_exptl_crystal_density_method    'not measured'
_exptl_crystal_description       box-shaped
_exptl_crystal_F_000             3215
_exptl_crystal_size_max          2.35
_exptl_crystal_size_mid          2.15
_exptl_crystal_size_min          1.95
_refine_diff_density_max         0.388
_refine_diff_density_min         -0.486
_refine_diff_density_rms         0.116
_refine_ls_extinction_coef       0.0076(3)
_refine_ls_extinction_expression Fc^*^=kFc[1+0.001xFc^2^\l^3^/sin(2\q)]^-1/4^
_refine_ls_extinction_method     'SHELXL-2014/7 (Sheldrick 2014'
_refine_ls_goodness_of_fit_ref   1.01
_refine_ls_hydrogen_treatment    undef
_refine_ls_matrix_type           full
_refine_ls_number_constraints    0
_refine_ls_number_parameters     32
_refine_ls_number_reflns         401
_refine_ls_number_restraints     2
_refine_ls_restrained_S_all      1.007
_refine_ls_R_factor_all          0.0642
_refine_ls_R_factor_gt           0.0259
_refine_ls_shift/su_max          0.001
_refine_ls_shift/su_mean         0
_refine_ls_structure_factor_coef Fsqd
_refine_ls_weighting_details     'w=1/[\s^2^(Fo^2^)] where P=(Fo^2^+2Fc^2^)/3'
_refine_ls_weighting_scheme      calc
_refine_ls_wR_factor_gt          0.0282
_refine_ls_wR_factor_ref         0.0328
_reflns_Friedel_coverage         0
_reflns_number_gt                291
_reflns_number_total             401
_reflns_threshold_expression     'I > 2\s(I)'
_cod_data_source_file            ra5085sup1.cif
_cod_data_source_block           300K
_cod_depositor_comments
'Adding full bibliography for 2108763--2108766.cif.'
_cod_original_cell_volume        2135.48(10)
_cod_database_code               2108765
_cod_database_fobs_code          2108765
_publcif_datablock.id            {8374bcec-5df8-415a-87e0-9a2a893c5a7e}
_shelx_shelxl_version_number     2014/7
loop_
_symmetry_equiv_pos_as_xyz
'x, y, z'
'x, -y, -z+1/2'
'-x+1/2, -y, z+1/2'
'-x+1/2, y, -z'
'-y+1/4, x+3/4, z+1/4'
'y+1/4, x+3/4, -z+3/4'
'y+1/4, -x+1/4, z+3/4'
'-y+1/4, -x+1/4, -z+1/4'
'y, z, x'
'-y+1/2, -z, x+1/2'
'y, -z, -x+1/2'
'-y+1/2, z, -x'
'-z+1/4, y+3/4, x+1/4'
'-z+1/4, -y+1/4, -x+1/4'
'z+1/4, -y+1/4, x+3/4'
'z+1/4, y+3/4, -x+3/4'
'z, x, y'
'-z, x+1/2, -y+1/2'
'-z, -x+1/2, y'
'z, -x, -y+1/2'
'-x+1/4, -z+1/4, -y+1/4'
'-x+1/4, z+3/4, y+1/4'
'x+3/4, -z+3/4, y+1/4'
'x+1/4, z+3/4, -y+3/4'
'x+1/2, y+1/2, z+1/2'
'x+1/2, -y+1/2, -z+1'
'-x+1, -y+1/2, z+1'
'-x+1, y+1/2, -z+1/2'
'-y+3/4, x+5/4, z+3/4'
'y+3/4, x+5/4, -z+5/4'
'y+3/4, -x+3/4, z+5/4'
'-y+3/4, -x+3/4, -z+3/4'
'y+1/2, z+1/2, x+1/2'
'-y+1, -z+1/2, x+1'
'y+1/2, -z+1/2, -x+1'
'-y+1, z+1/2, -x+1/2'
'-z+3/4, y+5/4, x+3/4'
'-z+3/4, -y+3/4, -x+3/4'
'z+3/4, -y+3/4, x+5/4'
'z+3/4, y+5/4, -x+5/4'
'z+1/2, x+1/2, y+1/2'
'-z+1/2, x+1, -y+1'
'-z+1/2, -x+1, y+1/2'
'z+1/2, -x+1/2, -y+1'
'-x+3/4, -z+3/4, -y+3/4'
'-x+3/4, z+5/4, y+3/4'
'x+5/4, -z+5/4, y+3/4'
'x+3/4, z+5/4, -y+5/4'
'-x, -y, -z'
'-x, y, z-1/2'
'x-1/2, y, -z-1/2'
'x-1/2, -y, z'
'y-1/4, -x-3/4, -z-1/4'
'-y-1/4, -x-3/4, z-3/4'
'-y-1/4, x-1/4, -z-3/4'
'y-1/4, x-1/4, z-1/4'
'-y, -z, -x'
'y-1/2, z, -x-1/2'
'-y, z, x-1/2'
'y-1/2, -z, x'
'z-1/4, -y-3/4, -x-1/4'
'z-1/4, y-1/4, x-1/4'
'-z-1/4, y-1/4, -x-3/4'
'-z-1/4, -y-3/4, x-3/4'
'-z, -x, -y'
'z, -x-1/2, y-1/2'
'z, x-1/2, -y'
'-z, x, y-1/2'
'x-1/4, z-1/4, y-1/4'
'x-1/4, -z-3/4, -y-1/4'
'-x-3/4, z-3/4, -y-1/4'
'-x-1/4, -z-3/4, y-3/4'
'-x+1/2, -y+1/2, -z+1/2'
'-x+1/2, y+1/2, z'
'x, y+1/2, -z'
'x, -y+1/2, z+1/2'
'y+1/4, -x-1/4, -z+1/4'
'-y+1/4, -x-1/4, z-1/4'
'-y+1/4, x+1/4, -z-1/4'
'y+1/4, x+1/4, z+1/4'
'-y+1/2, -z+1/2, -x+1/2'
'y, z+1/2, -x'
'-y+1/2, z+1/2, x'
'y, -z+1/2, x+1/2'
'z+1/4, -y-1/4, -x+1/4'
'z+1/4, y+1/4, x+1/4'
'-z+1/4, y+1/4, -x-1/4'
'-z+1/4, -y-1/4, x-1/4'
'-z+1/2, -x+1/2, -y+1/2'
'z+1/2, -x, y'
'z+1/2, x, -y+1/2'
'-z+1/2, x+1/2, y'
'x+1/4, z+1/4, y+1/4'
'x+1/4, -z-1/4, -y+1/4'
'-x-1/4, z-1/4, -y+1/4'
'-x+1/4, -z-1/4, y-1/4'
loop_
_atom_site_label
_atom_site_type_symbol
_atom_site_fract_x
_atom_site_fract_y
_atom_site_fract_z
_atom_site_U_iso_or_equiv
_atom_site_adp_type
_atom_site_occupancy
_atom_site_site_symmetry_order
_atom_site_calc_flag
_atom_site_refinement_flags_posn
_atom_site_refinement_flags_adp
_atom_site_refinement_flags_occupancy
_atom_site_disorder_assembly
_atom_site_disorder_group
La1 La 0.125 0 0.25 0.00795(15) Uani 1.001(4) 4 d S T . . .
Zr1 Zr 0 0 0 0.00529(12) Uani 0.456(3) 6 d S T P . .
Ta1 Ta 0 0 0 0.00529(12) Uani 0.544(3) 6 d S T P . .
O1 O 0.10314(4) 0.19792(4) 0.28048(4) 0.01204(12) Uani 1 1 d . . . . .
Li1 Li 0.375 0 0.25 0.0390(16) Uani 0.659(5) 4 d S T P . .
Li2 Li 0.1511(4) 0.1737(4) 0.4372(4) 0.0231(12) Uani 0.3413(13) 1 d . . P . .
loop_
_atom_site_aniso_label
_atom_site_aniso_U_11
_atom_site_aniso_U_22
_atom_site_aniso_U_33
_atom_site_aniso_U_23
_atom_site_aniso_U_13
_atom_site_aniso_U_12
La1 0.0104(2) 0.00675(17) 0.00675(17) 0.0018(2) 0 0
Zr1 0.00529(12) 0.00529(12) 0.00529(12) -0.00007(15) -0.00007(15) -0.00007(15)
Ta1 0.00529(12) 0.00529(12) 0.00529(12) -0.00007(15) -0.00007(15) -0.00007(15)
O1 0.00931(18) 0.0132(2) 0.01364(19) 0.00173(15) 0.00074(14) 0.00043(15)
Li1 0.0118(19) 0.053(3) 0.053(3) 0 0 0
Li2 0.032(3) 0.016(2) 0.021(2) -0.0051(18) 0.012(2) -0.011(2)
loop_
_atom_type_symbol
_atom_type_description
_atom_type_scat_dispersion_real
_atom_type_scat_dispersion_imag
_atom_type_scat_source
Li Li 0 0
'Neutron Data Booklet, ILL Grenoble, France (2003) ISBN 0-9704143-7-4'
O O 0 0 'Neutron Data Booklet, ILL Grenoble, France (2003) ISBN 0-9704143-7-4'
Ta Ta 0 0
'Neutron Data Booklet, ILL Grenoble, France (2003) ISBN 0-9704143-7-4'
Zr Zr 0 0
'Neutron Data Booklet, ILL Grenoble, France (2003) ISBN 0-9704143-7-4'
La La 0 0
'Neutron Data Booklet, ILL Grenoble, France (2003) ISBN 0-9704143-7-4'
loop_
_geom_angle_atom_site_label_1
_geom_angle_atom_site_label_2
_geom_angle_atom_site_label_3
_geom_angle
_geom_angle_site_symmetry_1
_geom_angle_site_symmetry_3
_geom_angle_publ_flag
O1 La1 O1 110.97(2) 17 14 ?
O1 La1 O1 73.24(2) 17 20 ?
O1 La1 O1 158.52(2) 14 20 ?
O1 La1 O1 158.52(2) 17 13_545 ?
O1 La1 O1 73.24(2) 14 13_545 ?
O1 La1 O1 110.97(2) 20 13_545 ?
O1 La1 O1 95.539(13) 17 22_545 ?
O1 La1 O1 124.718(10) 14 22_545 ?
O1 La1 O1 74.294(18) 20 22_545 ?
O1 La1 O1 66.71(2) 13_545 22_545 ?
O1 La1 O1 124.718(10) 17 2 ?
O1 La1 O1 95.539(13) 14 2 ?
O1 La1 O1 66.71(2) 20 2 ?
O1 La1 O1 74.294(18) 13_545 2 ?
O1 La1 O1 108.01(2) 22_545 2 ?
O1 La1 O1 74.294(18) 17 21 ?
O1 La1 O1 66.71(2) 14 21 ?
O1 La1 O1 95.539(13) 20 21 ?
O1 La1 O1 124.718(10) 13_545 21 ?
O1 La1 O1 167.54(2) 22_545 21 ?
O1 La1 O1 73.41(2) 2 21 ?
O1 La1 O1 66.71(2) 17 . ?
O1 La1 O1 74.294(18) 14 . ?
O1 La1 O1 124.718(10) 20 . ?
O1 La1 O1 95.539(13) 13_545 . ?
O1 La1 O1 73.41(2) 22_545 . ?
O1 La1 O1 167.54(2) 2 . ?
O1 La1 O1 108.01(2) 21 . ?
O1 La1 Li2 147.92(11) 17 56 ?
O1 La1 Li2 43.70(9) 14 56 ?
O1 La1 Li2 122.69(10) 20 56 ?
O1 La1 Li2 48.37(12) 13_545 56 ?
O1 La1 Li2 115.02(12) 22_545 56 ?
O1 La1 Li2 56.50(10) 2 56 ?
O1 La1 Li2 76.39(12) 21 56 ?
O1 La1 Li2 111.37(10) . 56 ?
O1 La1 Li2 43.70(9) 17 81 ?
O1 La1 Li2 147.92(11) 14 81 ?
O1 La1 Li2 48.37(12) 20 81 ?
O1 La1 Li2 122.69(10) 13_545 81 ?
O1 La1 Li2 56.50(10) 22_545 81 ?
O1 La1 Li2 115.02(12) 2 81 ?
O1 La1 Li2 111.36(10) 21 81 ?
O1 La1 Li2 76.38(12) . 81 ?
Li2 La1 Li2 167.4(2) 56 81 ?
O1 La1 Li2 48.37(12) 17 83_545 ?
O1 La1 Li2 122.69(10) 14 83_545 ?
O1 La1 Li2 43.70(9) 20 83_545 ?
O1 La1 Li2 147.92(11) 13_545 83_545 ?
O1 La1 Li2 111.36(10) 22_545 83_545 ?
O1 La1 Li2 76.39(12) 2 83_545 ?
O1 La1 Li2 56.50(10) 21 83_545 ?
O1 La1 Li2 115.02(12) . 83_545 ?
Li2 La1 Li2 121.2(2) 56 83_545 ?
Li2 La1 Li2 60.4(2) 81 83_545 ?
O1 La1 Li2 122.69(10) 17 53_566 ?
O1 La1 Li2 48.37(12) 14 53_566 ?
O1 La1 Li2 147.92(11) 20 53_566 ?
O1 La1 Li2 43.70(9) 13_545 53_566 ?
O1 La1 Li2 76.39(12) 22_545 53_566 ?
O1 La1 Li2 111.36(10) 2 53_566 ?
O1 La1 Li2 115.02(12) 21 53_566 ?
O1 La1 Li2 56.51(10) . 53_566 ?
Li2 La1 Li2 60.4(2) 56 53_566 ?
Li2 La1 Li2 121.2(2) 81 53_566 ?
Li2 La1 Li2 167.4(2) 83_545 53_566 ?
O1 Zr1 O1 180.00(4) 69 21 ?
O1 Zr1 O1 86.394(19) 69 62 ?
O1 Zr1 O1 93.606(19) 21 62 ?
O1 Zr1 O1 93.606(19) 69 14 ?
O1 Zr1 O1 86.394(19) 21 14 ?
O1 Zr1 O1 180.00(4) 62 14 ?
O1 Zr1 O1 86.394(19) 69 56 ?
O1 Zr1 O1 93.606(19) 21 56 ?
O1 Zr1 O1 86.394(19) 62 56 ?
O1 Zr1 O1 93.606(19) 14 56 ?
O1 Zr1 O1 93.606(19) 69 8 ?
O1 Zr1 O1 86.394(19) 21 8 ?
O1 Zr1 O1 93.606(19) 62 8 ?
O1 Zr1 O1 86.394(19) 14 8 ?
O1 Zr1 O1 180.00(4) 56 8 ?
O1 Zr1 Li2 133.65(10) 69 62 ?
O1 Zr1 Li2 46.35(10) 21 62 ?
O1 Zr1 Li2 47.36(10) 62 62 ?
O1 Zr1 Li2 132.64(10) 14 62 ?
O1 Zr1 Li2 92.51(10) 56 62 ?
O1 Zr1 Li2 87.49(10) 8 62 ?
O1 Zr1 Li2 46.35(10) 69 14 ?
O1 Zr1 Li2 133.65(10) 21 14 ?
O1 Zr1 Li2 132.64(10) 62 14 ?
O1 Zr1 Li2 47.36(10) 14 14 ?
O1 Zr1 Li2 87.49(10) 56 14 ?
O1 Zr1 Li2 92.51(10) 8 14 ?
Li2 Zr1 Li2 180.0(2) 62 14 ?
O1 Zr1 Li2 92.51(10) 69 56 ?
O1 Zr1 Li2 87.49(10) 21 56 ?
O1 Zr1 Li2 133.65(10) 62 56 ?
O1 Zr1 Li2 46.35(10) 14 56 ?
O1 Zr1 Li2 47.36(10) 56 56 ?
O1 Zr1 Li2 132.64(10) 8 56 ?
Li2 Zr1 Li2 119.905(10) 62 56 ?
Li2 Zr1 Li2 60.095(10) 14 56 ?
O1 Zr1 Li2 87.49(10) 69 8 ?
O1 Zr1 Li2 92.51(10) 21 8 ?
O1 Zr1 Li2 46.35(10) 62 8 ?
O1 Zr1 Li2 133.65(10) 14 8 ?
O1 Zr1 Li2 132.64(10) 56 8 ?
O1 Zr1 Li2 47.36(10) 8 8 ?
Li2 Zr1 Li2 60.095(10) 62 8 ?
Li2 Zr1 Li2 119.905(10) 14 8 ?
Li2 Zr1 Li2 180.00(17) 56 8 ?
O1 Zr1 Li2 47.36(10) 69 69 ?
O1 Zr1 Li2 132.64(10) 21 69 ?
O1 Zr1 Li2 92.51(10) 62 69 ?
O1 Zr1 Li2 87.49(10) 14 69 ?
O1 Zr1 Li2 133.65(10) 56 69 ?
O1 Zr1 Li2 46.35(10) 8 69 ?
Li2 Zr1 Li2 119.905(10) 62 69 ?
Li2 Zr1 Li2 60.095(10) 14 69 ?
Li2 Zr1 Li2 119.905(10) 56 69 ?
Li2 Zr1 Li2 60.095(10) 8 69 ?
O1 Zr1 Li2 132.64(10) 69 21 ?
O1 Zr1 Li2 47.36(10) 21 21 ?
O1 Zr1 Li2 87.49(10) 62 21 ?
O1 Zr1 Li2 92.51(10) 14 21 ?
O1 Zr1 Li2 46.35(10) 56 21 ?
O1 Zr1 Li2 133.65(10) 8 21 ?
Li2 Zr1 Li2 60.095(10) 62 21 ?
Li2 Zr1 Li2 119.905(10) 14 21 ?
Li2 Zr1 Li2 60.095(10) 56 21 ?
Li2 Zr1 Li2 119.905(10) 8 21 ?
Li2 Zr1 Li2 180.0(2) 69 21 ?
Li2 O1 Li1 51.28(16) 22_545 9 ?
Li2 O1 Ta1 104.07(15) 22_545 8 ?
Li1 O1 Ta1 130.25(3) 9 8 ?
Li2 O1 Zr1 104.07(15) 22_545 8 ?
Li1 O1 Zr1 130.25(3) 9 8 ?
Ta1 O1 Zr1 0 8 8 ?
Li2 O1 Li2 77.4(3) 22_545 89 ?
Li1 O1 Li2 47.73(17) 9 89 ?
Ta1 O1 Li2 88.80(17) 8 89 ?
Zr1 O1 Li2 88.80(17) 8 89 ?
Li2 O1 Li2 19.0(3) 22_545 . ?
Li1 O1 Li2 69.63(13) 9 . ?
Ta1 O1 Li2 87.81(14) 8 . ?
Zr1 O1 Li2 87.81(14) 8 . ?
Li2 O1 Li2 86.62(2) 89 . ?
Li2 O1 Li2 72.4(2) 22_545 91_455 ?
Li1 O1 Li2 44.47(13) 9 91_455 ?
Ta1 O1 Li2 174.71(13) 8 91_455 ?
Zr1 O1 Li2 174.71(13) 8 91_455 ?
Li2 O1 Li2 86.6(2) 89 91_455 ?
Li2 O1 Li2 89.3(2) . 91_455 ?
Li2 O1 La1 143.55(15) 22_545 9 ?
Li1 O1 La1 92.665(18) 9 9 ?
Ta1 O1 La1 104.489(19) 8 9 ?
Zr1 O1 La1 104.489(19) 8 9 ?
Li2 O1 La1 81.05(13) 89 9 ?
Li2 O1 La1 162.29(13) . 9 ?
Li2 O1 La1 77.37(15) 91_455 9 ?
Li2 O1 La1 94.64(17) 22_545 . ?
Li1 O1 La1 120.90(2) 9 . ?
Ta1 O1 La1 101.122(18) 8 . ?
Zr1 O1 La1 101.122(18) 8 . ?
Li2 O1 La1 168.62(18) 89 . ?
Li2 O1 La1 88.19(14) . . ?
Li2 O1 La1 83.22(12) 91_455 . ?
La1 O1 La1 101.566(17) 9 . ?
Li2 O1 Li2 77.5(2) 22_545 53_566 ?
Li1 O1 Li2 58.02(11) 9 53_566 ?
Ta1 O1 Li2 170.54(11) 8 53_566 ?
Zr1 O1 Li2 170.54(11) 8 53_566 ?
Li2 O1 Li2 100.63(16) 89 53_566 ?
Li2 O1 Li2 91.91(13) . 53_566 ?
Li2 O1 Li2 14.1(2) 91_455 53_566 ?
La1 O1 Li2 78.04(13) 9 53_566 ?
La1 O1 Li2 69.42(10) . 53_566 ?
Li2 O1 Li2 85.06(5) 22_545 79_556 ?
Li1 O1 Li2 58.01(14) 9 79_556 ?
Ta1 O1 Li2 80.12(13) 8 79_556 ?
Zr1 O1 Li2 80.12(13) 8 79_556 ?
Li2 O1 Li2 10.3(3) 89 79_556 ?
Li2 O1 Li2 91.90(17) . 79_556 ?
Li2 O1 Li2 95.54(15) 91_455 79_556 ?
La1 O1 Li2 78.04(10) 9 79_556 ?
La1 O1 Li2 178.75(13) . 79_556 ?
Li2 O1 Li2 109.33(15) 53_566 79_556 ?
Li2 Li1 Li2 134.8(3) 83_545 81 ?
Li2 Li1 Li2 98.48(12) 83_545 7_554 ?
Li2 Li1 Li2 98.48(12) 81 7_554 ?
Li2 Li1 Li2 98.48(12) 83_545 6_545 ?
Li2 Li1 Li2 98.48(12) 81 6_545 ?
Li2 Li1 Li2 134.8(3) 7_554 6_545 ?
Li2 Li1 O1 162.63(16) 83_545 64_666 ?
Li2 Li1 O1 62.09(17) 81 64_666 ?
Li2 Li1 O1 80.02(16) 7_554 64_666 ?
Li2 Li1 O1 71.8(2) 6_545 64_666 ?
Li2 Li1 O1 71.8(2) 83_545 20 ?
Li2 Li1 O1 80.02(16) 81 20 ?
Li2 Li1 O1 162.63(16) 7_554 20 ?
Li2 Li1 O1 62.09(17) 6_545 20 ?
O1 Li1 O1 113.634(15) 64_666 20 ?
Li2 Li1 O1 62.09(17) 83_545 63_656 ?
Li2 Li1 O1 162.63(16) 81 63_656 ?
Li2 Li1 O1 71.8(2) 7_554 63_656 ?
Li2 Li1 O1 80.02(16) 6_545 63_656 ?
O1 Li1 O1 101.43(3) 64_666 63_656 ?
O1 Li1 O1 113.634(15) 20 63_656 ?
Li2 Li1 O1 80.02(16) 83_545 17 ?
Li2 Li1 O1 71.8(2) 81 17 ?
Li2 Li1 O1 62.09(17) 7_554 17 ?
Li2 Li1 O1 162.63(16) 6_545 17 ?
O1 Li1 O1 113.634(15) 64_666 17 ?
O1 Li1 O1 101.43(3) 20 17 ?
O1 Li1 O1 113.634(15) 63_656 17 ?
Li2 Li1 Li2 5.8(3) 83_545 63_656 ?
Li2 Li1 Li2 136.9(2) 81 63_656 ?
Li2 Li1 Li2 92.7(3) 7_554 63_656 ?
Li2 Li1 Li2 102.6(3) 6_545 63_656 ?
O1 Li1 Li2 160.90(13) 64_666 63_656 ?
O1 Li1 Li2 77.39(15) 20 63_656 ?
O1 Li1 Li2 59.47(13) 63_656 63_656 ?
O1 Li1 Li2 77.37(11) 17 63_656 ?
Li2 Li1 Li2 136.9(2) 83_545 64_666 ?
Li2 Li1 Li2 5.8(3) 81 64_666 ?
Li2 Li1 Li2 102.6(3) 7_554 64_666 ?
Li2 Li1 Li2 92.7(3) 6_545 64_666 ?
O1 Li1 Li2 59.47(13) 64_666 64_666 ?
O1 Li1 Li2 77.37(11) 20 64_666 ?
O1 Li1 Li2 160.90(13) 63_656 64_666 ?
O1 Li1 Li2 77.39(15) 17 64_666 ?
Li2 Li1 Li2 139.6(3) 63_656 64_666 ?
Li2 Li1 Li2 102.6(3) 83_545 17 ?
Li2 Li1 Li2 92.7(3) 81 17 ?
Li2 Li1 Li2 5.8(3) 7_554 17 ?
Li2 Li1 Li2 136.9(2) 6_545 17 ?
O1 Li1 Li2 77.37(11) 64_666 17 ?
O1 Li1 Li2 160.90(13) 20 17 ?
O1 Li1 Li2 77.39(15) 63_656 17 ?
O1 Li1 Li2 59.47(13) 17 17 ?
Li2 Li1 Li2 96.84(9) 63_656 17 ?
Li2 Li1 Li2 96.84(9) 64_666 17 ?
Li2 Li1 Li2 92.7(3) 83_545 20 ?
Li2 Li1 Li2 102.6(3) 81 20 ?
Li2 Li1 Li2 136.9(2) 7_554 20 ?
Li2 Li1 Li2 5.8(3) 6_545 20 ?
O1 Li1 Li2 77.39(15) 64_666 20 ?
O1 Li1 Li2 59.47(13) 20 20 ?
O1 Li1 Li2 77.37(11) 63_656 20 ?
O1 Li1 Li2 160.90(13) 17 20 ?
Li2 Li1 Li2 96.84(9) 63_656 20 ?
Li2 Li1 Li2 96.84(9) 64_666 20 ?
Li2 Li1 Li2 139.6(3) 17 20 ?
Li2 Li2 Li1 161.0(12) 22_545 5_545 ?
Li2 Li2 O1 103.4(7) 22_545 22_545 ?
Li1 Li2 O1 66.6(2) 5_545 22_545 ?
Li2 Li2 O1 138.0(11) 22_545 81 ?
Li1 Li2 O1 60.52(15) 5_545 81 ?
O1 Li2 O1 109.0(2) 22_545 81 ?
Li2 Li2 O1 57.5(7) 22_545 . ?
Li1 Li2 O1 138.6(3) 5_545 . ?
O1 Li2 O1 102.0(2) 22_545 . ?
O1 Li2 O1 89.6(2) 81 . ?
Li2 Li2 O1 114.2(4) 22_545 84 ?
Li1 Li2 O1 55.50(16) 5_545 84 ?
O1 Li2 O1 101.2(3) 22_545 84 ?
O1 Li2 O1 85.12(17) 81 84 ?
O1 Li2 O1 156.7(3) . 84 ?
Li2 Li2 Li1 13.3(8) 22_545 9 ?
Li1 Li2 Li1 170.5(3) 5_545 9 ?
O1 Li2 Li1 115.0(2) 22_545 9 ?
O1 Li2 Li1 124.9(3) 81 9 ?
O1 Li2 Li1 50.91(13) . 9 ?
O1 Li2 Li1 115.6(2) 84 9 ?
Li2 Li2 Li2 150.2(3) 22_545 64_666 ?
Li1 Li2 Li2 40.76(6) 5_545 64_666 ?
O1 Li2 Li2 62.2(2) 22_545 64_666 ?
O1 Li2 Li2 46.85(13) 81 64_666 ?
O1 Li2 Li2 98.0(3) . 64_666 ?
O1 Li2 Li2 94.82(16) 84 64_666 ?
Li1 Li2 Li2 148.7(3) 9 64_666 ?
Li2 Li2 Li2 120.2(11) 22_545 61_566 ?
Li1 Li2 Li2 40.76(6) 5_545 61_566 ?
O1 Li2 Li2 55.8(3) 22_545 61_566 ?
O1 Li2 Li2 100.18(14) 81 61_566 ?
O1 Li2 Li2 157.5(4) . 61_566 ?
O1 Li2 Li2 45.44(12) 84 61_566 ?
Li1 Li2 Li2 131.5(3) 9 61_566 ?
Li2 Li2 Li2 75.10(19) 64_666 61_566 ?
Li2 Li2 O1 51.7(4) 22_545 79_556 ?
Li1 Li2 O1 128.8(2) 5_545 79_556 ?
O1 Li2 O1 146.8(3) 22_545 79_556 ?
O1 Li2 O1 103.8(2) 81 79_556 ?
O1 Li2 O1 83.3(2) . 79_556 ?
O1 Li2 O1 76.02(13) 84 79_556 ?
Li1 Li2 O1 44.61(9) 9 79_556 ?
Li2 Li2 O1 150.4(3) 64_666 79_556 ?
Li2 Li2 O1 113.4(2) 61_566 79_556 ?
Li2 Li2 O1 31.7(9) 22_545 53_566 ?
Li1 Li2 O1 129.5(3) 5_545 53_566 ?
O1 Li2 O1 80.24(17) 22_545 53_566 ?
O1 Li2 O1 169.4(3) 81 53_566 ?
O1 Li2 O1 83.27(17) . 53_566 ?
O1 Li2 O1 98.36(19) 84 53_566 ?
Li1 Li2 O1 44.60(9) 9 53_566 ?
Li2 Li2 O1 141.9(3) 64_666 53_566 ?
Li2 Li2 O1 89.3(3) 61_566 53_566 ?
O1 Li2 O1 67.69(12) 79_556 53_566 ?
Li2 Li2 Ta1 97.4(10) 22_545 8 ?
Li1 Li2 Ta1 101.5(2) 5_545 8 ?
O1 Li2 Ta1 114.4(2) 22_545 8 ?
O1 Li2 Ta1 44.86(12) 81 8 ?
O1 Li2 Ta1 44.83(12) . 8 ?
O1 Li2 Ta1 124.85(19) 84 8 ?
Li1 Li2 Ta1 86.4(2) 9 8 ?
Li2 Li2 Ta1 69.3(2) 64_666 8 ?
Li2 Li2 Ta1 142.1(2) 61_566 8 ?
O1 Li2 Ta1 92.65(19) 79_556 8 ?
O1 Li2 Ta1 127.1(2) 53_566 8 ?
loop_
_geom_bond_atom_site_label_1
_geom_bond_atom_site_label_2
_geom_bond_distance
_geom_bond_site_symmetry_2
_geom_bond_publ_flag
La1 O1 2.4945(5) 17 ?
La1 O1 2.4945(5) 14 ?
La1 O1 2.4945(5) 20 ?
La1 O1 2.4945(5) 13_545 ?
La1 O1 2.5940(5) 22_545 ?
La1 O1 2.5940(5) 2 ?
La1 O1 2.5940(5) 21 ?
La1 O1 2.5940(5) . ?
La1 Li2 2.999(5) 56 ?
La1 Li2 2.999(5) 81 ?
La1 Li2 2.999(5) 83_545 ?
La1 Li2 2.999(5) 53_566 ?
Zr1 O1 2.0446(5) 69 ?
Zr1 O1 2.0446(5) 21 ?
Zr1 O1 2.0446(5) 62 ?
Zr1 O1 2.0446(5) 14 ?
Zr1 O1 2.0446(5) 56 ?
Zr1 O1 2.0446(5) 8 ?
Zr1 Li2 2.898(6) 62 ?
Zr1 Li2 2.898(6) 14 ?
Zr1 Li2 2.898(6) 56 ?
Zr1 Li2 2.898(6) 8 ?
Zr1 Li2 2.898(6) 69 ?
Zr1 Li2 2.898(6) 21 ?
O1 Li2 1.851(6) 22_545 ?
O1 Li1 1.9224(4) 9 ?
O1 Ta1 2.0446(5) 8 ?
O1 Zr1 2.0446(5) 8 ?
O1 Li2 2.097(5) 89 ?
O1 Li2 2.133(6) . ?
O1 Li2 2.297(5) 91_455 ?
O1 La1 2.4946(5) 9 ?
O1 Li2 2.671(5) 53_566 ?
O1 Li2 2.672(5) 79_556 ?
Li1 Li2 1.634(6) 83_545 ?
Li1 Li2 1.634(6) 81 ?
Li1 Li2 1.634(6) 7_554 ?
Li1 Li2 1.634(6) 6_545 ?
Li1 O1 1.9224(4) 64_666 ?
Li1 O1 1.9224(4) 20 ?
Li1 O1 1.9224(4) 63_656 ?
Li1 O1 1.9224(4) 17 ?
Li1 Li2 2.322(6) 63_656 ?
Li1 Li2 2.322(6) 64_666 ?
Li1 Li2 2.322(6) 17 ?
Li1 Li2 2.322(6) 20 ?
Li2 Li2 0.715(10) 22_545 ?
Li2 Li1 1.634(6) 5_545 ?
Li2 O1 1.851(6) 22_545 ?
Li2 O1 2.097(5) 81 ?
Li2 O1 2.297(5) 84 ?
Li2 Li1 2.322(6) 9 ?
Li2 Li2 2.475(9) 64_666 ?
Li2 Li2 2.475(9) 61_566 ?
Li2 O1 2.671(5) 79_556 ?
Li2 O1 2.672(5) 53_566 ?
Li2 Ta1 2.898(6) 8 ?
