#------------------------------------------------------------------------------
#$Date: 2017-07-25 12:55:55 +0300 (Tue, 25 Jul 2017) $
#$Revision: 199215 $
#$URL: file:///home/coder/svn-repositories/cod/cif/2/24/22/2242257.cif $
#------------------------------------------------------------------------------
#
# This file is available in the Crystallography Open Database (COD),
# http://www.crystallography.net/. The original data for this entry
# were provided by IUCr Journals, http://journals.iucr.org/.
#
# The file may be used within the scientific community so long as
# proper attribution is given to the journal article from which the
# data were obtained.
#
data_2242257
loop_
_publ_author_name
'German, Konstantin E.'
'Grigoriev, Mikhail S.'
'Garashchenko, Bogdan L.'
'Kopytin, Alexander V.'
'Tyupina, Ekaterina A.'
_publ_section_title
;
 Redetermination of the crystal structure of NaTcO~4~ at 100 and 296K
 based on single-crystal X-ray data
;
_journal_coeditor_code           WM5391
_journal_issue                   7
_journal_name_full               'Acta Crystallographica Section E'
_journal_page_first              1037
_journal_page_last               1040
_journal_paper_doi               10.1107/S2056989017008362
_journal_volume                  73
_journal_year                    2017
_chemical_formula_moiety         'O4 Tc, Na'
_chemical_formula_sum            'Na O4 Tc'
_chemical_formula_weight         185.9
_chemical_melting_point_lt       1063
_chemical_name_common            'sodium pertechnetate'
_chemical_name_systematic
;
Sodium tetraoxidotechnetate(VII)
;
_space_group_IT_number           88
_symmetry_cell_setting           tetragonal
_symmetry_space_group_name_Hall  '-I 4ad'
_symmetry_space_group_name_H-M   'I 41/a :2'
_cell_angle_alpha                90
_cell_angle_beta                 90
_cell_angle_gamma                90
_cell_formula_units_Z            4
_cell_length_a                   5.33250(10)
_cell_length_b                   5.33250(10)
_cell_length_c                   11.8503(3)
_cell_measurement_reflns_used    2097
_cell_measurement_temperature    296(2)
_cell_measurement_theta_max      35.201
_cell_measurement_theta_min      4.191
_cell_volume                     336.970(12)
_computing_cell_refinement
;
SAINT-Plus (Bruker, 2008)
;
_computing_data_collection
;
APEX2 (Bruker, 2008)
;
_computing_data_reduction
;
SAINT-Plus (Bruker, 2008)
;
_computing_molecular_graphics
;
SHELXTL (Sheldrick, 2008)
;
_computing_publication_material
;
SHELXTL (Sheldrick, 2008)
;
_computing_structure_refinement
;
SHELXL-2014 (Sheldrick, 2015b)
;
_computing_structure_solution
;
SHELXS-2014 (Sheldrick, 2015a)
;
_diffrn_ambient_temperature      296(2)
_diffrn_detector_area_resol_mean 9.091
_diffrn_measured_fraction_theta_full 0.991
_diffrn_measured_fraction_theta_max 0.981
_diffrn_measurement_device_type
'Bruker Kappa APEX II area-detector diffractometer'
_diffrn_measurement_method       '\w- and \f-scans'
_diffrn_radiation_monochromator  graphite
_diffrn_radiation_type           MoK\a
_diffrn_radiation_wavelength     0.71073
_diffrn_reflns_av_R_equivalents  0.0161
_diffrn_reflns_limit_h_max       7
_diffrn_reflns_limit_h_min       -8
_diffrn_reflns_limit_k_max       8
_diffrn_reflns_limit_k_min       -8
_diffrn_reflns_limit_l_max       18
_diffrn_reflns_limit_l_min       -18
_diffrn_reflns_number            2371
_diffrn_reflns_theta_full        25.242
_diffrn_reflns_theta_max         34.894
_diffrn_reflns_theta_min         4.191
_diffrn_standards_decay_%        0
_diffrn_standards_interval_count 0
_diffrn_standards_interval_time  0
_diffrn_standards_number         0
_exptl_absorpt_coefficient_mu    4.233
_exptl_absorpt_correction_T_max  0.485
_exptl_absorpt_correction_T_min  0.386
_exptl_absorpt_correction_type   multi-scan
_exptl_absorpt_process_details
;
(<i>SADABS</i>; Bruker, 2008)
;
_exptl_crystal_colour            colourless
_exptl_crystal_density_diffrn    3.664
_exptl_crystal_description       fragment
_exptl_crystal_F_000             344
_exptl_crystal_size_max          0.280
_exptl_crystal_size_mid          0.260
_exptl_crystal_size_min          0.200
_refine_diff_density_max         0.231
_refine_diff_density_min         -0.328
_refine_ls_extinction_coef       0.136(3)
_refine_ls_extinction_expression Fc^*^=kFc[1+0.001xFc^2^\l^3^/sin(2\q)]^-1/4^
_refine_ls_extinction_method     SHELXL
_refine_ls_goodness_of_fit_ref   1.161
_refine_ls_hydrogen_treatment    undef
_refine_ls_matrix_type           full
_refine_ls_number_parameters     15
_refine_ls_number_reflns         365
_refine_ls_number_restraints     0
_refine_ls_restrained_S_all      1.161
_refine_ls_R_factor_all          0.0087
_refine_ls_R_factor_gt           0.0081
_refine_ls_shift/su_max          0.000
_refine_ls_shift/su_mean         0.000
_refine_ls_structure_factor_coef Fsqd
_refine_ls_weighting_details
'w=1/[\s^2^(Fo^2^)+(0.0071P)^2^+0.0846P] where P=(Fo^2^+2Fc^2^)/3'
_refine_ls_weighting_scheme      calc
_refine_ls_wR_factor_gt          0.0184
_refine_ls_wR_factor_ref         0.0186
_reflns_number_gt                350
_reflns_number_total             365
_reflns_threshold_expression     'I > 2\s(I)'
_cod_data_source_file            wm5391sup1.cif
_cod_data_source_block           II
_cod_original_cell_volume        336.970(15)
_cod_original_sg_symbol_H-M      'I 41/a'
_cod_database_code               2242257
_shelx_hkl_file
;
   1   1   0 -8.0568  0.5171   1
  -1  -1   0 -8.8896  1.1762   3
  -1   1   0 -4.8780  0.8017   1
  -1   1   0 -8.1103  0.8732   2
   2   0   0 5790.54  106.73   1
   2   0   0 5978.01  135.85   2
   0   2   0 5911.04  108.63   1
  -2   0   0 5385.07  112.79   4
  -2  -2   0 8325.68  153.75   1
  -2  -2   0 7449.84  191.13   3
  -2   2   0 8258.87  188.82   2
   2  -2   0 8483.60  158.11   1
   2   2   0 8549.68  155.19   1
  -2   2   0 8133.90  155.65   1
   3   1   0 -3.3146  0.4915   1
  -3  -1   0 -4.3229  1.0253   4
  -3  -1   0 -2.0146  1.4046   3
   1  -3   0 -4.0423  0.6993   1
  -3   1   0 4.64865 1.39344   4
   3  -1   0 1.56765 0.75243   1
  -3   3   0 -1.1207  1.3643   2
  -3  -3   0 9.66170 2.66541   3
   3   3   0 -0.5670  0.8199   1
  -3   3   0 -1.1647  0.8378   1
   3  -3   0 -0.9772  0.9445   1
  -4  -2   0 6149.05  143.41   3
   4   2   0 6609.57  122.03   1
  -2   4   0 6424.06  118.91   1
   2  -4   0 6402.39  119.22   1
  -2   4   0 6422.63  148.58   2
   4   0   0 5928.85  112.35   1
   0  -4   0 5986.90  111.18   1
  -4   0   0 5937.09  113.19   4
   0   4   0 6104.36  111.37   1
  -4   2   0 7431.41  146.38   4
  -2  -4   0 7316.55  168.26   3
   4  -2   0 7555.22  143.28   1
  -2  -4   0 7614.40  140.99   1
   2   4   0 7679.83  146.17   1
   4   4   0 1813.25   36.14   1
  -4   4   0 1844.81   38.06   4
  -4  -4   0 1838.91   46.32   3
   4  -4   0 1788.16   37.11   1
   3  -5   0 0.45508 1.31328   1
  -5  -3   0 1.37735 2.31269   3
  -3   5   0 5.06536 1.66578   1
   5   3   0 4.39387 1.11816   1
  -3   5   0 0.44878 1.35286   2
  -1   5   0 0.04025 1.15929   1
   1  -5   0 2.25971 1.42359   1
   5   1   0 2.52226 0.68635   1
  -5  -1   0 -1.9357  1.4212   4
   5  -1   0 1.69284 0.87973   1
  -1  -5   0 -0.7815  0.8985   1
  -5   1   0 0.20396 1.54665   4
   1   5   0 5.19824 1.59507   1
   5  -3   0 5.32652 1.46497   1
   3   5   0 -0.4167  1.1324   1
  -3  -5   0 0.24250 2.11802   3
  -5   3   0 2.53133 1.59102   4
  -5   5   0 0.21657 1.79788   4
   5  -5   0 3.68857 1.82692   1
  -5  -5   0 -0.3636  2.6134   3
   5   5   0 0.22524 1.26865   1
   6   4   0 1996.66   38.50   1
  -6  -4   0 1920.22   50.71   3
   4  -6   0 1910.32   41.73   1
  -6  -2   0 3031.22   74.46   3
   2  -6   0 3161.88   62.47   1
  -2   6   0 3162.22   61.97   1
   0  -6   0 2251.00   45.99   1
   0   6   0 2252.54   46.22   1
  -6   0   0 2274.61   47.30   4
   2   6   0 1989.22   42.74   1
   6  -2   0 2125.75   41.09   1
  -2  -6   0 2105.26   53.23   3
  -6   2   0 2096.40   44.17   4
  -6   4   0 2340.52   49.12   4
  -4  -6   0 2283.20   59.37   3
   4   6   0 2311.74   47.30   1
   6  -4   0 2329.27   47.27   1
  -6  -6   0 890.399  29.128   3
  -6   6   0 939.326  23.683   4
   6   6   0 883.187  21.278   1
   6  -6   0 921.046  23.662   1
  -7  -5   0 1.80063 3.02987   3
   5  -7   0 3.43037 2.45522   1
   3  -7   0 -0.6727  1.5984   1
  -7  -3   0 -4.3521  1.9067   3
  -1   7   0 -1.9974  1.4818   1
   1  -7   0 2.95031 1.81573   1
  -7  -1   0 -0.9000  2.1366   4
  -1  -7   0 -1.8624  3.1343   3
   1   7   0 1.00522 1.75732   1
  -1  -7   0 0.42340 1.38719   1
  -7   1   0 -0.3758  1.9423   4
   7  -3   0 3.05797 1.66630   1
   3   7   0 11.5363  2.5475   1
  -7   3   0 2.74538 2.14952   4
  -3  -7   0 2.86349 3.13895   3
  -5  -7   0 2.32395 3.09747   3
  -7   5   0 5.93466 2.52243   4
   5   7   0 4.89159 2.13197   1
   7  -5   0 -0.7506  1.6776   1
   2  -8   0 621.224  18.617   1
  -2   8   0 643.542  18.528   1
  -8   0   0 1709.27   40.04   4
   0  -8   0 1767.87   38.92   1
   0   8   0 1764.63   39.45   1
   0  -8   0 1708.62   48.15   3
  -8   2   0 990.306  25.878   4
   2   8   0 973.102  25.041   1
  -2  -8   0 974.954  31.532   3
   0   1  -1 3859.28   71.82   1
   0  -1  -1 3743.10   71.47   1
   1   0  -1 3759.88   87.19   2
  -1   0   1 3629.55   84.15   3
   1   0   1 3706.93   69.97   1
   0  -1   1 3777.73   72.06   1
  -1   0   1 3600.64   72.33   4
   2   1  -1 260.150   7.604   2
  -2  -1  -1 268.351   6.779   4
  -2  -1  -1 267.723   7.799   3
  -1   2  -1 276.518   6.985   2
   2   1  -1 262.022   5.396   1
   1  -2  -1 251.380   6.199   1
  -2  -1   1 269.561   8.086   3
  -2  -1   1 270.064   6.695   4
  -1   2   1 294.814   6.365   1
   2   1   1 272.908   5.874   1
   1  -2   1 261.138   6.398   1
   2  -1  -1 4692.72   87.12   1
  -2   1  -1 4407.75   89.49   4
  -1  -2  -1 4533.04   88.41   1
   1   2   1 4744.13   91.03   1
  -1  -2   1 4490.38  106.44   3
   2  -1   1 4752.85   88.64   1
  -1  -2   1 4683.72   88.91   1
   2  -1   1 4679.88  106.67   2
  -2   3  -1 843.689  20.354   2
   3   2  -1 832.078  16.410   1
  -3  -2  -1 853.778  21.902   3
   2  -3  -1 832.634  17.632   1
  -2   3  -1 840.950  17.737   1
  -2   3   1 832.750  21.001   2
   2  -3   1 842.564  17.840   1
   3   2   1 834.946  16.771   1
  -3  -2   1 846.768  22.223   3
  -2   3   1 805.126  17.361   1
   3   0  -1 1248.75   23.39   1
  -3   0  -1 1289.59   25.78   4
   0  -3  -1 1242.57   25.01   1
   3   0   1 1287.38   24.06   1
   0  -3   1 1267.99   25.09   1
  -3   0   1 1270.33   25.79   4
   0   3   1 1241.35   25.06   1
   2   3  -1 3942.36   72.30   1
  -2  -3  -1 3929.37   72.04   1
  -3   2  -1 3795.19   73.62   4
  -2  -3  -1 3862.66   88.34   3
  -3   2  -1 3836.49   71.92   1
   3  -2  -1 3993.39   74.54   1
  -3   2   1 3869.15   87.64   2
  -3   2   1 3881.66   71.62   1
   2   3   1 3908.78   72.41   1
  -2  -3   1 3773.47   88.45   3
  -2  -3   1 3877.97   73.02   1
   3  -2   1 3947.69   73.87   1
   4   3  -1 1266.16   25.13   1
  -4  -3  -1 1282.23   33.07   3
   3  -4  -1 1257.44   26.73   1
  -3   4  -1 1264.11   30.95   2
  -3   4  -1 1279.12   26.62   1
   4   3   1 1255.16   25.40   1
  -3   4   1 1286.40   26.45   1
  -3   4   1 1241.24   31.47   2
   3  -4   1 1278.88   26.94   1
  -4  -3   1 1299.55   33.57   3
  -4  -1  -1 1678.01   34.38   4
   4   1  -1 1666.62   30.72   1
  -1   4  -1 1704.78   38.08   2
  -4  -1  -1 1642.05   39.86   3
  -1   4  -1 1598.99   33.24   1
   1  -4  -1 1660.00   33.40   1
   4   1   1 1698.08   31.55   1
   1  -4   1 1653.09   33.44   1
  -4  -1   1 1658.44   40.37   3
  -4  -1   1 1685.09   34.30   4
  -1   4   1 1663.65   33.27   1
  -1  -4  -1 1772.42   35.68   1
  -4   1  -1 1818.79   36.79   4
   4  -1  -1 1839.82   34.22   1
   4  -1   1 1853.34   34.92   1
  -1  -4   1 1785.25   35.66   1
  -4   1   1 1830.30   37.02   4
   3   4  -1 1383.35   28.20   1
  -3  -4  -1 1408.44   36.06   3
   4  -3  -1 1402.83   28.34   1
  -4   3  -1 1397.35   29.37   4
  -4   3   1 1412.75   29.87   4
  -4   3   1 1362.89   34.80   2
   3   4   1 1362.35   28.31   1
  -3  -4   1 1401.73   36.23   3
   4  -3   1 1399.20   28.59   1
  -4   5  -1 532.833  14.095   4
   4  -5  -1 519.187  14.264   1
  -5  -4  -1 528.685  18.008   3
   5   4  -1 518.906  12.396   1
  -4   5   1 521.871  16.212   2
   5   4   1 521.373  12.693   1
  -5  -4   1 525.711  18.255   3
   4  -5   1 516.527  14.341   1
  -5  -2  -1 1939.74   47.63   3
  -2   5  -1 1954.58   44.91   2
   2  -5  -1 1930.10   39.67   1
   5   2  -1 1914.65   36.33   1
  -2   5  -1 1911.76   39.50   1
   2  -5   1 1990.72   39.96   1
  -2   5   1 1930.57   45.85   2
  -5  -2   1 1908.81   48.10   3
   5   2   1 1955.25   36.98   1
  -2   5   1 1934.93   39.33   1
  -5  -2   1 1953.85   40.79   4
   0  -5  -1 1453.54   30.46   1
   5   0  -1 1465.61   27.51   1
   0   5  -1 1460.52   30.72   1
  -5   0  -1 1449.68   31.43   4
  -5   0   1 1490.97   31.65   4
   0   5   1 1468.93   30.67   1
   5   0   1 1496.12   28.36   1
   0  -5   1 1464.36   30.60   1
  -2  -5  -1 659.690  15.351   1
   5  -2  -1 667.280  14.469   1
  -2  -5  -1 661.626  20.427   3
  -5   2  -1 658.254  16.396   4
   2   5  -1 649.344  15.791   1
  -2  -5   1 674.855  20.579   3
   5  -2   1 665.691  14.982   1
  -5   2   1 658.881  16.706   4
   2   5   1 644.523  15.805   1
  -2  -5   1 645.334  15.159   1
   5  -4  -1 571.150  14.695   1
  -4  -5  -1 594.365  19.610   3
   4   5  -1 572.966  14.296   1
  -5   4  -1 582.604  15.381   4
   4   5   1 584.629  14.589   1
  -4  -5   1 604.579  19.953   3
  -5   4   1 560.493  15.733   4
   5  -4   1 561.219  14.897   1
   5  -6  -1 646.278  18.107   1
  -6  -5  -1 668.184  22.556   3
   6   5  -1 643.190  15.568   1
   5  -6   1 667.374  18.533   1
   6   5   1 669.019  16.121   1
  -5   6   1 657.912  18.279   4
  -6  -5   1 621.510  22.690   3
  -3   6  -1 491.727  13.850   1
   3  -6  -1 479.310  14.142   1
  -6  -3  -1 488.504  17.082   3
   3  -6   1 490.201  14.263   1
   6   3   1 479.278  11.318   1
  -6  -3   1 483.717  17.531   3
  -6  -1  -1 1320.66   30.13   4
   1  -6  -1 1295.57   29.08   1
  -1   6  -1 1335.21   29.18   1
   1  -6   1 1325.94   29.17   1
  -6  -1   1 1332.45   30.13   4
  -1   6   1 1288.32   28.87   1
  -1  -6  -1 406.262  11.407   1
   1   6  -1 394.674  11.688   1
  -6   1  -1 385.674  12.061   4
   6  -1   1 386.015   9.619   1
  -6   1   1 392.969  12.331   4
  -1  -6   1 403.426  15.199   3
   1   6   1 387.379  11.592   1
  -1  -6   1 385.337  11.158   1
  -6   3  -1 1059.30   25.73   4
  -3  -6  -1 1099.36   32.00   3
   6  -3  -1 1090.58   23.86   1
   3   6  -1 1235.49   25.35   1
  -3  -6   1 1083.64   31.93   3
  -6   3   1 1076.79   26.19   4
   3   6   1 1064.54   24.97   1
   6  -3   1 1068.30   24.24   1
  -6   5  -1 348.388  11.803   4
   5   6  -1 373.560  10.873   1
   6  -5  -1 352.486  11.613   1
  -5  -6  -1 342.837  15.061   3
   5   6   1 331.112  10.722   1
  -5  -6   1 348.258  15.386   3
  -6   5   1 348.126  12.295   4
   6  -5   1 337.862  11.598   1
   4  -7  -1 564.949  16.825   1
  -7  -4  -1 545.452  19.903   3
  -7  -4   1 547.916  20.510   3
   4  -7   1 537.295  16.818   1
   2  -7  -1 328.347  11.629   1
  -2   7  -1 336.694  11.546   1
  -2   7   1 346.506  11.496   1
   2  -7   1 325.922  11.571   1
  -7   0  -1 486.697  15.156   4
   0  -7  -1 506.213  14.527   1
   0   7  -1 488.596  14.689   1
   0   7   1 473.904  14.383   1
  -7   0   1 506.059  15.405   4
   0  -7   1 493.299  14.292   1
  -2  -7  -1 715.845  24.260   3
  -7   2  -1 727.622  19.710   4
   2   7  -1 731.493  19.148   1
  -2  -7   1 737.775  24.473   3
   2   7   1 718.745  19.069   1
  -7   2   1 709.265  20.010   4
  -7   4  -1 577.226  16.975   4
  -4  -7  -1 556.374  21.152   3
   4   7  -1 564.003  16.037   1
   7  -4  -1 554.601  15.243   1
  -7   4   1 589.902  17.554   4
  -4  -7   1 555.218  21.085   3
   4   7   1 568.535  16.180   1
   7  -4   1 557.030  15.737   1
   3  -8  -1 253.995  10.841   1
   3  -8   1 251.897  10.930   1
   1  -8  -1 407.802  13.795   1
  -1   8  -1 412.631  14.135   1
  -8  -1   1 415.198  14.704   4
  -1   8   1 415.840  13.991   1
   1  -8   1 426.965  14.048   1
  -8   1  -1 466.407  15.526   4
   1   8  -1 481.256  15.292   1
  -1  -8  -1 440.841  18.677   3
   1   8   1 463.246  15.025   1
  -8   1   1 482.568  15.854   4
  -1  -8   1 466.926  18.985   3
  -3  -8  -1 265.007  14.002   3
   3   8  -1 279.706  11.006   1
  -8   3  -1 279.874  11.446   4
  -8   3   1 276.046  11.621   4
   3   8   1 275.846  10.921   1
  -3  -8   1 289.375  14.407   3
   0   0  -2 -6.5765  0.3920   1
   1   1  -2 9833.39  168.00   1
  -1  -1  -2 9100.77  168.41   1
  -1   1  -2 8874.54  169.76   1
   1  -1  -2 9474.81  168.86   1
  -1  -1  -2 8287.49  202.49   3
  -1  -1   2 8787.98  167.75   1
  -1  -1   2 8644.53  170.87   4
   1  -1   2 8982.47  170.51   1
   1   1   2 9118.35  170.22   1
  -1  -1   2 8380.49  205.40   3
  -1   1   2 9765.64  168.71   1
   2   0  -2 943.930  17.699   1
   2   0  -2 951.952  22.863   2
  -2   0  -2 966.368  19.243   4
   0   2  -2 942.181  18.925   1
  -2   0  -2 957.163  18.222   1
   0  -2  -2 946.731  18.856   1
   0   2   2 934.916  18.860   1
   0  -2   2 951.905  18.966   1
  -2   0   2 958.651  19.355   4
   2   0   2 976.135  18.643   1
  -2   0   2 927.214  22.860   2
   2   2  -2 103.360   3.249   1
  -2  -2  -2 102.001   3.293   1
  -2   2  -2 102.787   3.610   4
   2  -2  -2 103.383   3.482   1
   2   2  -2 105.499   4.162   2
  -2  -2  -2 108.905   4.972   3
  -2   2   2 122.283   3.485   1
   2  -2   2 130.881   4.490   2
   2  -2   2 99.8594  3.7171   1
  -2  -2   2 105.350   5.232   3
  -2   2   2 107.440   4.800   2
   2   2   2 106.092   3.560   1
  -2  -2   2 109.785   3.125   1
  -1   3  -2 5386.99  123.44   2
   3   1  -2 5626.33  100.49   1
   1  -3  -2 5500.55  100.48   1
  -3  -1  -2 5411.49  125.83   3
  -3  -1  -2 5304.95  102.17   4
  -1   3  -2 5354.65  102.20   1
   1  -3   2 5478.27  104.18   1
  -1   3   2 5488.05  103.41   1
   3   1   2 5414.73  102.61   1
  -3  -1   2 5349.80  103.97   4
  -1  -3  -2 8581.59  166.53   1
  -3   1  -2 8444.54  162.64   1
   3  -1  -2 9076.32  162.27   1
  -3   1  -2 8658.60  167.93   4
   1   3   2 8809.95  163.89   1
  -1  -3   2 8421.44  196.69   3
  -1  -3   2 8614.20  163.23   1
  -3   1   2 8567.73  169.17   4
   3  -1   2 8661.02  163.16   1
  -3   1   2 8835.64  203.25   2
  -3  -3  -2 6003.81  110.28   1
  -3  -3  -2 5845.57  137.75   3
  -3   3  -2 5883.91  110.56   1
   3  -3  -2 6096.93  114.10   1
   3   3  -2 6113.59  114.68   1
  -3   3  -2 5856.45  115.13   4
  -3   3   2 5943.09  136.71   2
   3   3   2 6081.97  116.66   1
   3  -3   2 6041.34  110.98   1
  -3  -3   2 5779.78  134.50   3
  -3   3   2 5961.63  111.41   1
   2  -4  -2 291.291   8.478   1
   4   2  -2 300.958   6.673   1
  -2   4  -2 291.901   8.601   1
  -4  -2  -2 307.295  10.474   3
  -2   4  -2 305.245   8.674   2
  -4  -2   2 317.898   9.215   4
  -4  -2   2 312.146  11.217   3
   2  -4   2 303.376   8.792   1
  -2   4   2 289.601   8.248   1
   4   2   2 305.408   7.490   1
   0  -4  -2 819.165  17.826   1
   0   4  -2 792.066  17.838   1
   0   4   2 809.652  17.824   1
   0  -4   2 814.419  17.803   1
   4   0   2 830.397  16.661   1
  -4   0   2 816.604  18.515   4
  -2  -4  -2 51.4912  4.6374   3
  -2  -4  -2 63.1712  3.0525   1
   4  -2  -2 51.7198  2.5661   1
   2   4  -2 51.9869  3.1279   1
  -4   2  -2 52.9546  3.4094   4
  -2  -4   2 49.7851  4.6471   3
  -4   2   2 53.8099  4.0867   2
   4  -2   2 55.1495  2.9983   1
  -4   2   2 65.1942  3.8478   4
   2   4   2 57.4800  3.1663   1
  -2  -4   2 53.7559  2.8483   1
   4  -4  -2 -0.2249  1.0764   1
  -4  -4  -2 0.27876 2.07183   3
   4   4  -2 1.29761 1.03804   1
  -4   4   2 2.63370 1.74574   2
  -4  -4   2 2.87089 2.53210   3
   4   4   2 1.94717 1.18405   1
   4  -4   2 0.34396 1.15324   1
  -5  -3  -2 2910.23   71.16   3
  -3   5  -2 3043.10   59.14   1
   5   3  -2 2987.40   56.22   1
   3  -5  -2 3018.47   59.24   1
   5   3   2 3042.31   57.11   1
  -3   5   2 2901.83   69.96   2
   3  -5   2 3034.78   59.62   1
  -3   5   2 3075.87   58.70   1
  -5  -3   2 2984.38   72.45   3
  -1   5  -2 5187.04   97.60   1
   1  -5  -2 5241.09   97.61   1
  -5  -1  -2 5162.84   99.30   4
   1  -5   2 5131.51   97.60   1
  -1   5   2 5151.86   97.33   1
  -5  -1   2 5031.81   99.08   4
   5   1   2 5167.53   96.35   1
  -5   1  -2 3445.38   67.48   4
   5  -1  -2 3506.89   63.65   1
  -1  -5  -2 3492.44   66.19   1
   1   5  -2 3479.47   66.52   1
   1   5   2 3455.09   66.46   1
  -1  -5   2 3405.32   80.81   3
  -5   1   2 3421.83   67.89   4
  -1  -5   2 3322.38   65.82   1
   5  -1   2 3424.06   64.91   1
  -3  -5  -2 2994.60   72.98   3
   5  -3  -2 3072.94   58.43   1
  -5   3  -2 3068.15   60.33   4
   3   5  -2 2925.43   58.76   1
  -3  -5   2 3052.05   73.42   3
  -5   3   2 3014.16   61.20   4
   5  -3   2 3053.67   59.19   1
   3   5   2 3109.04   59.48   1
   5   5  -2 1600.93   33.77   1
   5  -5  -2 1671.44   35.65   1
  -5   5  -2 1636.85   35.38   4
  -5  -5  -2 1634.23   43.95   3
   5  -5   2 1651.84   36.04   1
  -5   5   2 1672.05   36.98   4
  -5  -5   2 1680.43   44.96   3
   5   5   2 1648.48   34.49   1
   4  -6  -2 34.3771  3.7673   1
  -6  -4  -2 39.9958  5.1234   3
  -6  -4   2 42.6026  5.4153   3
   4  -6   2 28.7710  3.7981   1
   6   4   2 41.6075  3.0388   1
  -2   6  -2 6.30214 2.08642   1
   2  -6  -2 7.40918 2.04600   1
  -6  -2  -2 9.24217 2.90649   3
  -6  -2   2 7.55130 3.17306   3
  -2   6   2 15.0634  2.5153   1
   6   2   2 7.59726 1.34779   1
   2  -6   2 13.1767  2.4665   1
  -6  -2   2 10.4841  2.6660   4
   0   6  -2 40.1822  3.4777   1
   0  -6  -2 37.2991  3.1625   1
  -6   0  -2 38.1467  4.0178   4
   6   0   2 41.9666  2.4505   1
   0   6   2 38.1009  3.3656   1
   0  -6   2 41.3991  3.3210   1
  -6   0   2 36.4067  3.9431   4
  -2  -6  -2 14.3410  2.3105   1
  -2  -6  -2 13.1723  3.7477   3
  -6   2  -2 19.3474  3.1187   4
  -6   2   2 26.0938  3.6028   4
   6  -2   2 6.39123 1.69805   1
  -2  -6   2 7.62911 3.32775   3
   2   6   2 6.12330 1.92724   1
  -4  -6  -2 12.8019  3.7964   3
  -6   4  -2 19.6924  3.1632   4
   4   6  -2 8.28314 2.19759   1
   6  -4  -2 2.40450 1.58092   1
  -6   4   2 7.33954 2.64493   4
  -4  -6   2 8.52955 3.45790   3
   6  -4   2 7.80116 2.19374   1
   4   6   2 6.18821 1.97953   1
  -6  -6  -2 18.0750  4.4294   3
   6  -6  -2 12.1640  2.9171   1
   6   6  -2 14.2369  2.5394   1
   6  -6   2 13.0938  3.1238   1
  -6   6   2 20.2191  3.8300   4
   6   6   2 12.3026  2.5119   1
  -6  -6   2 16.0745  4.5026   3
   5  -7  -2 1051.04   27.13   1
   5  -7   2 1093.71   27.77   1
   3  -7  -2 1180.34   28.68   1
   3  -7   2 1190.07   28.95   1
  -1   7  -2 1645.72   36.87   1
   1  -7  -2 1664.23   36.78   1
  -7  -1   2 1645.85   37.77   4
   1  -7   2 1691.65   36.81   1
  -1   7   2 1672.43   36.58   1
  -1  -7  -2 1701.07   36.53   1
  -1  -7  -2 1684.99   45.84   3
   1   7  -2 1684.59   37.20   1
  -7   1  -2 1642.66   37.50   4
  -1  -7   2 1701.71   45.59   3
  -7   1   2 1691.76   38.18   4
   1   7   2 1667.39   37.03   1
  -3  -7  -2 1622.17   45.11   3
   3   7  -2 1605.18   35.95   1
  -7   3  -2 1676.01   36.87   4
  -7   3   2 1653.94   37.70   4
   7  -3   2 1629.93   34.73   1
   3   7   2 1608.68   36.04   1
  -3  -7   2 1602.43   45.08   3
   7  -5  -2 783.577  20.360   1
   2  -8  -2 -0.1615  1.7782   1
  -2   8  -2 0.36096 2.07293   1
   2  -8   2 -0.9315  1.7593   1
  -8   0  -2 0.40120 2.35722   4
   0  -8  -2 1.06156 1.82675   1
   0   8  -2 0.84678 2.11691   1
   0  -8   2 -2.3104  1.5129   1
  -8   0   2 -0.2818  2.0948   4
   0   8   2 5.23898 2.46262   1
   0  -8   2 -1.3841  3.4017   3
  -8   2  -2 35.1025  4.6141   4
   2   8  -2 42.2485  4.5525   1
  -2  -8  -2 45.5224  6.8626   3
  -8   2   2 37.9296  5.0607   4
  -2  -8   2 37.7013  6.2696   3
   2   8   2 48.3292  4.4880   1
   1   0  -3 4092.34   79.48   1
   0  -1  -3 4161.13   80.64   1
   0   1  -3 4171.51   78.93   1
  -1   0   3 4173.01   77.88   1
   0   1   3 4194.19   81.28   1
   0  -1   3 4228.10   94.97   3
   0  -1   3 4123.36   80.09   1
   2   1  -3 3015.19   68.75   2
  -2  -1  -3 3129.27   58.32   1
   2   1  -3 3012.23   58.80   1
   1  -2  -3 3056.00   58.53   1
  -2  -1  -3 3163.98   72.04   3
  -1   2  -3 3105.45   57.70   1
   1  -2   3 3022.36   69.69   2
   1  -2   3 3096.89   57.71   1
  -2  -1   3 3078.10   70.47   2
  -1   2   3 3091.48   57.18   1
  -2  -1   3 3012.15   69.40   3
   2   1   3 3157.46   58.66   1
   1   2  -3 146.988   4.197   2
   1   2  -3 141.087   4.154   1
  -2   1  -3 152.693   4.238   4
  -1  -2  -3 149.988   4.262   1
   1   2   3 145.512   4.374   1
  -1  -2   3 164.597   4.313   1
  -1  -2   3 176.163   6.002   3
   2  -1   3 152.941   4.535   1
  -3  -2  -3 3518.87   79.82   3
   2  -3  -3 3572.62   66.29   1
   3   2  -3 3359.93   66.30   1
  -3  -2  -3 3601.62   65.17   1
  -2   3  -3 3512.16   66.62   1
   3   2   3 3562.99   65.93   1
  -2   3   3 3532.88   65.97   1
  -3  -2   3 3539.98   67.51   4
   2  -3   3 3583.68   66.86   1
  -3  -2   3 3435.16   80.78   3
   0   3  -3 1507.00   30.07   1
   3   0  -3 1536.86   28.00   1
  -3   0  -3 1521.59   30.48   4
   3   0  -3 1547.35   27.97   1
   0  -3  -3 1528.20   29.98   1
  -3   0  -3 1501.99   28.74   1
   0  -3   3 1516.72   30.10   1
  -3   0   3 1502.83   36.35   2
   3   0   3 1538.07   29.54   1
   0   3   3 1542.89   30.02   1
  -2  -3  -3 1736.17   41.54   3
  -3   2  -3 1725.33   34.08   4
   3  -2  -3 1730.42   33.26   1
   2   3  -3 1755.20   39.58   2
   2   3  -3 1713.40   33.61   1
  -2  -3  -3 1747.34   33.66   1
   2   3   3 1717.79   33.99   1
  -2  -3   3 1731.55   42.09   3
  -3   2   3 1740.25   32.74   1
  -2  -3   3 1733.88   33.33   1
  -3   2   3 1690.35   41.47   2
   3  -2   3 1775.59   34.21   1
   4   3  -3 676.551  13.240   1
  -3   4  -3 618.636  14.038   4
  -4  -3  -3 608.681  18.035   3
   3  -4  -3 581.252  14.474   1
  -3   4  -3 595.251  14.714   1
  -4  -3   3 619.517  19.082   3
  -3   4   3 586.404  17.651   2
   3  -4   3 604.944  15.152   1
  -3   4   3 611.303  14.196   1
   4   3   3 589.962  13.832   1
  -1   4  -3 1916.86   39.26   1
   1  -4  -3 1973.80   39.06   1
  -4  -1  -3 1992.18   46.23   3
  -4  -1   3 1938.87   39.90   4
   4   1   3 2009.50   37.99   1
  -4  -1   3 2025.17   47.79   3
  -1   4   3 1976.94   38.94   1
   1  -4   3 1963.72   39.32   1
  -4   1  -3 2429.69   47.57   4
  -1  -4  -3 2398.32   46.74   1
   1   4  -3 2417.91   46.96   1
   1   4  -3 2443.85   53.39   2
   4  -1  -3 2431.70   44.84   1
  -1  -4   3 2437.94   57.37   3
  -1  -4   3 2397.31   46.74   1
  -4   1   3 2375.98   57.11   2
   1   4   3 2428.03   47.04   1
   4  -1   3 2438.07   46.47   1
  -4   1   3 2374.19   48.14   4
  -4   3  -3 802.300  18.213   4
   4  -3  -3 812.293  17.747   1
  -3  -4  -3 819.267  23.101   3
   3   4  -3 800.007  17.784   1
  -3  -4   3 861.206  23.964   3
  -4   3   3 800.328  22.705   2
   3   4   3 819.076  18.290   1
   4  -3   3 814.364  18.570   1
   4  -5  -3 634.036  16.372   1
   5   4  -3 629.870  14.395   1
  -5  -4  -3 639.514  20.180   3
  -5  -4   3 640.432  21.168   3
   5   4   3 633.047  15.223   1
   4  -5   3 643.913  16.894   1
  -4   5   3 622.351  19.359   2
  -2   5  -3 1009.81   23.09   1
  -5  -2  -3 1033.79   27.11   3
   2  -5  -3 1058.81   23.16   1
  -5  -2   3 1043.57   23.78   4
   2  -5   3 1018.42   23.33   1
  -2   5   3 936.746  22.149   1
  -5  -2   3 1044.07   28.66   3
   5   2   3 1053.73   21.30   1
   0   5  -3 620.711  15.406   1
   0  -5  -3 626.930  15.220   1
  -5   0  -3 624.439  15.792   4
   5   0   3 633.290  13.871   1
   0  -5   3 620.452  15.180   1
   0   5   3 610.670  15.224   1
  -5   0   3 630.077  16.045   4
   5  -2  -3 1760.68   33.97   1
  -2  -5  -3 1761.17   44.34   3
   2   5  -3 1742.65   35.84   1
  -2  -5  -3 1724.86   35.34   1
  -5   2  -3 1736.07   36.27   4
   2   5   3 1703.18   35.95   1
  -2  -5   3 1727.38   44.52   3
  -5   2   3 1771.39   37.33   4
   5  -2   3 1780.26   35.54   1
   4   5  -3 742.306  17.691   1
  -4  -5  -3 766.791  23.613   3
   5  -4  -3 754.773  18.099   1
  -5   4  -3 767.044  18.461   4
   5  -4   3 772.662  18.957   1
  -5   4   3 772.356  23.068   2
   4   5   3 746.357  18.124   1
  -4  -5   3 782.149  24.242   3
  -5   4   3 778.862  19.940   4
  -6  -5  -3 401.562  15.350   3
   5  -6  -3 333.357  11.870   1
  -6  -5   3 362.068  15.954   3
   5  -6   3 357.436  12.569   1
  -5   6   3 355.150  12.827   4
   6   5   3 339.857  10.615   1
  -3   6  -3 1191.35   27.39   1
   3  -6  -3 1188.57   27.61   1
  -6  -3  -3 1188.59   32.50   3
   6   3   3 1212.95   25.00   1
  -6  -3   3 1181.22   34.21   3
   3  -6   3 1205.93   28.13   1
  -1   6  -3 499.310  13.877   1
   1  -6  -3 474.043  13.460   1
  -1   6   3 466.037  13.303   1
   6   1   3 483.420  11.307   1
   1  -6   3 486.983  13.672   1
  -6  -1   3 476.263  14.114   4
  -1  -6  -3 815.376  19.380   1
  -6   1  -3 803.119  19.965   4
   1   6  -3 823.125  19.951   1
  -6   1   3 807.456  20.578   4
   1   6   3 782.694  19.588   1
  -1  -6   3 792.295  19.179   1
   6  -1   3 825.851  18.049   1
  -1  -6   3 806.216  24.594   3
   6  -3  -3 539.352  13.307   1
  -3  -6  -3 543.581  19.037   3
   3   6  -3 528.816  14.587   1
  -6   3  -3 533.880  14.820   4
  -3  -6   3 573.677  19.607   3
  -6   3   3 543.738  15.944   4
   6  -3   3 530.883  14.462   1
   3   6   3 536.070  14.847   1
   6  -5  -3 760.722  18.904   1
   5   6  -3 720.234  18.075   1
  -5  -6  -3 711.456  23.835   3
  -5  -6   3 705.888  24.596   3
   5   6   3 712.932  18.396   1
   6  -5   3 708.427  19.541   1
  -6   5   3 721.112  20.553   4
   4  -7  -3 373.474  13.152   1
  -7  -4  -3 370.628  15.084   3
   4  -7   3 366.140  13.336   1
  -7  -4   3 392.806  16.892   3
  -2   7  -3 544.283  15.970   1
   2  -7  -3 554.463  16.134   1
  -7  -2   3 525.898  16.319   4
   2  -7   3 554.125  16.315   1
  -2   7   3 545.068  15.651   1
   0  -7  -3 908.939  22.368   1
  -7   0  -3 883.987  22.985   4
   0   7  -3 909.611  22.896   1
   0  -7   3 906.269  27.746   3
  -7   0   3 867.790  23.144   4
   0  -7   3 928.589  22.370   1
   0   7   3 871.511  22.289   1
   2   7  -3 273.801  10.219   1
  -2  -7  -3 274.281  13.274   3
  -7   2  -3 271.989  10.202   4
  -7   2   3 264.684  10.830   4
   7  -2   3 275.462   8.831   1
   2   7   3 270.381  10.098   1
  -2  -7   3 297.014  13.457   3
  -7   4  -3 419.288  13.200   4
  -4  -7  -3 412.814  17.007   3
   7  -4  -3 384.664  11.767   1
   4   7  -3 401.674  12.812   1
   4   7   3 405.270  13.080   1
   7  -4   3 395.969  12.810   1
  -4  -7   3 399.192  17.244   3
  -7   4   3 411.118  14.405   4
   3  -8  -3 221.213  10.097   1
   1  -8  -3 384.403  13.281   1
  -1   8  -3 363.012  13.273   1
   1  -8   3 376.835  13.162   1
  -1   8   3 402.019  13.433   1
  -8  -1   3 357.844  13.491   4
  -8   1  -3 513.381  16.078   4
  -1  -8  -3 510.206  20.218   3
   1   8  -3 491.873  15.938   1
  -8   1   3 495.595  16.466   4
   1   8   3 484.597  15.385   1
  -1  -8   3 511.768  19.803   3
   0   0   4 6047.21  116.75   1
  -1  -1  -4 1812.19   34.80   1
   1  -1  -4 1865.70   34.65   1
   1   1  -4 1842.20   34.68   1
  -1  -1   4 1781.38   41.88   3
  -1  -1   4 1833.56   42.54   2
  -1  -1   4 1850.99   34.68   4
   1  -1   4 1889.68   35.36   1
  -1   1   4 1830.73   34.49   1
  -1  -1   4 1792.17   34.58   1
   0   2  -4 9877.53  182.22   1
   2   0  -4 9519.71  179.56   1
   0  -2  -4 9251.29  184.36   1
  -2   0  -4 9797.24  183.57   1
  -2   0   4 9860.41  221.35   2
   2   0   4 9579.83  182.56   1
   0   2   4 9999.99  185.23   1
   0  -2   4 9332.25  184.87   1
  -2   0   4 9893.25  187.96   4
   0  -2   4 9334.41  219.19   3
  -2  -2  -4 6906.27  167.43   3
  -2  -2  -4 7555.08  137.02   1
   2   2  -4 7319.94  140.69   1
   2   2  -4 7894.31  166.75   2
   2  -2  -4 7606.10  137.35   1
  -2   2  -4 7353.12  138.10   4
   2  -2   4 7345.95  135.83   1
  -2  -2   4 6903.19  135.91   1
  -2  -2   4 6689.67  163.49   3
   2  -2   4 7423.88  167.93   2
   2   2   4 7250.70  142.30   1
  -2   2   4 7532.14  138.11   1
  -2  -2   4 6986.21  141.85   4
   1  -3  -4 3.18899 1.13183   1
  -3  -1  -4 6.32015 1.03111   1
  -3  -1  -4 5.78979 1.53412   3
  -3  -1   4 6.75732 2.22309   3
  -3  -1   4 5.05759 1.46852   4
   1  -3   4 6.25554 1.50841   1
  -1   3   4 3.28265 1.16681   1
   3   1   4 6.26382 1.37391   1
  -1  -3  -4 6.68592 1.37811   1
   3  -1  -4 5.78851 0.93624   1
  -3   1  -4 6.50175 1.51461   4
   1   3  -4 4.60092 1.29333   1
   1   3   4 7.99224 1.55479   1
  -3   1   4 7.07042 2.23785   2
  -1  -3   4 8.69545 1.47987   1
   3  -1   4 7.98792 1.52904   1
   3  -3  -4 278.963   7.851   1
   3   3  -4 299.971   7.617   1
  -3  -3  -4 300.298  10.403   3
  -3  -3  -4 291.091   7.557   1
  -3   3  -4 288.875   7.617   4
  -3   3   4 305.421  10.638   2
   3   3   4 308.961   8.306   1
  -3   3   4 301.014   7.572   1
  -3  -3   4 301.903  11.105   3
   3  -3   4 296.390   8.658   1
  -4  -2  -4 4310.77   98.25   3
   2  -4  -4 4469.68   82.42   1
   4   2  -4 4267.10   80.02   1
  -2   4  -4 4295.00   82.68   1
   4   2   4 4394.61   81.63   1
  -2   4   4 4310.72   81.94   1
  -4  -2   4 4411.37   83.76   4
   2  -4   4 4447.63   83.08   1
  -4  -2   4 4295.23  100.15   3
  -4   0  -4 5506.29  103.59   4
   4   0  -4 5402.27  100.99   1
   0   4  -4 5606.00  102.63   1
   0  -4  -4 5515.80  102.29   1
   0   4   4 5578.06  102.30   1
  -4   0   4 5357.88  103.80   4
   0  -4   4 5422.59  102.34   1
  -4   0   4 5256.45  123.29   2
   4   0   4 5596.31  101.55   1
   4  -2  -4 3807.08   70.62   1
  -2  -4  -4 3848.84   87.48   3
  -4   2  -4 3826.04   72.57   4
  -2  -4  -4 3826.76   71.73   1
   2   4  -4 3862.68   72.04   1
  -2  -4   4 3670.29   87.67   3
  -4   2   4 3752.74   87.63   2
   4  -2   4 3841.55   72.27   1
  -4   2   4 3740.95   73.79   4
   2   4   4 3832.41   72.29   1
  -2  -4   4 3694.09   71.35   1
  -4  -4  -4 3745.86   88.09   3
  -4   4  -4 3724.28   72.47   4
   4   4  -4 3794.68   71.52   1
   4  -4  -4 3855.60   72.55   1
  -4  -4   4 3769.34   89.44   3
  -4   4   4 3759.47   88.30   2
   4   4   4 3762.87   72.35   1
   4  -4   4 3788.83   73.53   1
  -3   5  -4 50.2969  3.7340   1
   5   3  -4 44.3931  2.4679   1
  -5  -3  -4 37.8477  4.2069   3
   3  -5  -4 41.9213  3.4114   1
   5   3   4 37.4383  2.8361   1
  -5  -3   4 44.2702  5.2767   3
  -3   5   4 44.6290  4.2169   2
   3  -5   4 39.2239  3.5558   1
   1  -5  -4 9.82744 1.84787   1
  -1   5  -4 9.06875 1.93149   1
   1  -5   4 7.99419 1.88477   1
  -5  -1   4 10.3260  2.2485   4
   5   1   4 9.91472 1.53892   1
  -1   5   4 11.8049  2.0261   1
   5  -1  -4 18.7962  1.4091   1
   1   5  -4 17.7028  2.4096   1
  -5   1  -4 15.4006  2.3935   4
  -1  -5  -4 18.6136  2.3113   1
  -5   1   4 17.2252  2.7168   4
   5  -1   4 19.3316  2.2536   1
   1   5   4 17.2909  2.4360   1
  -1  -5   4 19.3363  3.5392   3
  -1  -5   4 19.4326  2.3613   1
   5  -3  -4 181.375   6.041   1
  -3  -5  -4 184.623   9.105   3
  -5   3  -4 181.023   6.703   4
   3   5  -4 172.986   6.649   1
  -5   3   4 180.967   8.798   2
  -3  -5   4 177.411   9.318   3
  -5   3   4 185.698   7.786   4
   5  -3   4 183.557   7.072   1
   3   5   4 171.849   6.737   1
  -5  -5  -4 48.9061  5.3299   3
   5  -5  -4 53.6696  4.0755   1
   5   5  -4 49.1817  3.5657   1
   5  -5   4 49.8041  4.3815   1
  -5  -5   4 57.7050  6.0014   3
   5   5   4 53.0475  3.9283   1
  -5   5   4 47.1681  4.6344   4
   4  -6  -4 1493.98   33.44   1
  -6  -4  -4 1500.29   39.45   3
  -6  -4   4 1472.45   41.60   3
   6   4   4 1480.59   31.19   1
   4  -6   4 1451.10   33.88   1
  -2   6  -4 1953.71   41.86   1
   2  -6  -4 1955.28   41.81   1
  -2   6   4 2003.84   41.37   1
   6   2   4 2002.89   39.29   1
  -6  -2   4 2005.08   42.60   4
   2  -6   4 2001.03   42.29   1
  -6   0  -4 2939.67   58.97   4
   0   6  -4 2866.28   58.39   1
   0  -6  -4 2918.56   57.88   1
   0  -6   4 2902.50   70.20   3
   6   0   4 2902.88   55.74   1
   0  -6   4 2865.98   57.77   1
   0   6   4 2906.62   58.03   1
  -6   0   4 2882.82   59.36   4
  -6   2  -4 2514.12   51.58   4
  -2  -6  -4 2633.41   50.99   1
  -2  -6  -4 2542.80   62.96   3
   6  -2  -4 2514.70   48.28   1
   2   6  -4 2481.28   51.35   1
  -2  -6   4 2487.01   62.92   3
  -6   2   4 2484.92   52.90   4
   2   6   4 2551.29   51.65   1
   6  -2   4 2538.06   50.43   1
   4   6  -4 1312.24   29.16   1
  -4  -6  -4 1278.62   36.77   3
   6  -4  -4 1316.08   28.70   1
  -6   4  -4 1323.66   29.35   4
  -6   4   4 1341.42   31.79   4
   4   6   4 1291.87   29.63   1
   6  -4   4 1289.69   30.03   1
  -4  -6   4 1360.96   37.92   3
   3  -7  -4 9.66478 2.62176   1
   3  -7   4 9.39302 2.60261   1
   1  -7  -4 78.1732  5.0769   1
  -1   7  -4 72.8834  5.1897   1
  -7  -1   4 71.6294  5.5446   4
   1  -7   4 72.6858  5.1238   1
   7   1   4 72.9925  3.7289   1
  -1   7   4 77.0599  5.1034   1
  -7   1  -4 16.1202  3.1123   4
  -1  -7  -4 20.8331  3.0199   1
   1   7  -4 14.8449  3.0621   1
   1   7   4 17.0082  3.0371   1
  -7   1   4 17.1650  3.5264   4
  -1  -7   4 19.0640  4.4602   3
   7  -1   4 16.0836  2.2635   1
  -3  -7  -4 7.62675 3.63879   3
   3   7  -4 7.08854 2.54614   1
  -7   3  -4 13.1568  2.8728   4
  -7   3   4 11.7311  3.1449   4
  -3  -7   4 14.2758  4.0912   3
   3   7   4 12.3801  2.7387   1
   7  -3   4 8.65170 2.24300   1
  -2   8  -4 1120.26   28.45   1
   2  -8  -4 1149.57   28.71   1
   2  -8   4 1152.93   28.97   1
   0   8  -4 868.761  23.037   1
   0  -8  -4 855.264  22.315   1
   0  -8   4 824.727  27.147   3
   0   8   4 797.686  22.052   1
  -8   0   4 808.836  22.935   4
   2   8  -4 904.118  24.327   1
  -8   2  -4 909.088  23.954   4
  -2  -8  -4 910.614  30.043   3
  -8   2   4 943.009  25.486   4
   2   8   4 960.254  24.653   1
  -2  -8   4 927.813  29.933   3
   0  -1  -5 863.165  17.413   1
   1   0  -5 874.467  17.198   1
  -1   0  -5 839.910  17.427   1
   0  -1   5 879.401  20.051   3
   1   0   5 869.849  17.703   1
   0   1   5 849.724  17.394   1
   0  -1   5 865.188  17.657   1
  -1   0   5 846.281  16.944   1
  -2  -1  -5 3623.24   83.12   3
  -1   2  -5 3656.14   67.90   1
   1  -2  -5 3547.01   67.27   1
  -2  -1  -5 3633.60   67.16   1
  -2  -1   5 3666.82   84.57   2
   1  -2   5 3681.05   68.08   1
  -2  -1   5 3557.25   67.88   4
   2   1   5 3652.29   67.69   1
  -1   2   5 3617.30   68.72   1
  -2  -1   5 3465.86   81.23   3
  -2   1  -5 3411.03   63.16   1
  -1  -2  -5 3318.29   63.07   1
   1   2  -5 3424.67   63.09   1
   2  -1  -5 3449.78   64.77   1
  -1  -2   5 3477.97   77.23   2
  -1  -2   5 3350.08   76.02   3
   1   2   5 3384.71   63.34   1
  -2   1   5 3293.72   61.95   1
  -1  -2   5 3242.93   62.91   1
   2  -1   5 3337.73   63.58   1
  -3  -2  -5 1143.86   28.05   3
  -2   3  -5 1160.36   22.49   4
   3   2  -5 1107.71   22.66   1
   2  -3  -5 1160.12   23.80   1
  -3  -2  -5 1161.22   23.11   1
  -2   3  -5 1145.55   24.32   1
  -2   3   5 1153.81   23.45   1
  -3  -2   5 1170.58   24.14   4
  -3  -2   5 1166.51   29.73   3
   2  -3   5 1174.31   26.88   2
   3   2   5 1148.94   23.89   1
   2  -3   5 1165.57   24.64   1
   3   0  -5 3053.58   57.27   1
  -3   0  -5 3048.87   57.43   1
   0  -3  -5 3005.81   58.19   1
  -3   0   5 3088.20   59.12   4
   3   0   5 3103.99   58.29   1
   0  -3   5 3034.86   58.53   1
  -3   0   5 3094.90   70.39   2
   0   3   5 3096.75   58.34   1
   0  -3   5 3088.88   69.91   3
   3  -2  -5 577.053  12.697   1
  -3   2  -5 583.762  12.796   4
   2   3  -5 586.796  13.215   1
  -2  -3  -5 583.912  16.315   3
  -2  -3  -5 575.417  13.173   1
  -2  -3   5 569.654  12.770   1
   3  -2   5 599.248  14.011   1
  -2  -3   5 600.523  17.092   3
   2   3   5 587.169  13.709   1
  -3   2   5 570.420  16.875   2
  -4  -3  -5 1619.41   39.34   3
   3  -4  -5 1573.50   32.75   1
  -3   4  -5 1592.50   33.26   1
   4   3  -5 1574.45   31.36   1
  -3   4   5 1554.46   40.35   2
   3  -4   5 1545.40   33.62   1
   4   3   5 1642.47   32.75   1
  -4  -3   5 1667.21   41.42   3
  -4  -1  -5 1078.00   25.95   3
   1  -4  -5 1037.52   22.85   1
  -1   4  -5 1038.13   23.14   1
  -4  -1   5 1060.76   23.34   4
   1  -4   5 1067.40   23.34   1
   4   1   5 1106.66   22.43   1
  -1   4   5 1061.17   22.74   1
  -4  -1   5 1078.95   28.25   3
  -4   1  -5 627.234  14.560   4
   4  -1  -5 615.024  12.792   1
   1   4  -5 629.558  14.878   1
  -1  -4  -5 626.181  14.678   1
   4  -1   5 630.174  14.723   1
  -1  -4   5 637.067  18.319   3
  -4   1   5 598.425  18.120   2
  -1  -4   5 624.395  14.614   1
   1   4   5 618.696  14.884   1
  -4   1   5 640.934  15.401   4
  -4   3  -5 1296.23   26.89   4
  -3  -4  -5 1284.38   33.59   3
   3   4  -5 1279.23   27.07   1
  -3  -4  -5 1264.86   26.74   1
   4  -3  -5 1421.15   26.98   1
   4  -3   5 1296.81   28.20   1
  -3  -4   5 1317.12   34.62   3
   3   4   5 1283.25   27.66   1
  -4   3   5 1277.56   34.19   2
  -5  -4  -5 1062.77   29.24   3
   5   4  -5 1056.55   22.46   1
   4  -5  -5 1042.46   24.43   1
   5   4   5 1062.65   23.70   1
  -5  -4   5 1080.97   31.48   3
  -4   5   5 1065.03   29.94   2
   4  -5   5 1047.98   25.38   1
  -5  -2  -5 497.371  14.692   3
   2  -5  -5 484.870  13.156   1
  -2   5  -5 471.593  13.246   1
  -2   5   5 494.040  12.834   1
  -5  -2   5 495.267  13.525   4
   2  -5   5 478.102  13.555   1
   5   2   5 491.336  12.204   1
  -5  -2   5 500.163  17.095   3
   0  -5  -5 1310.49   28.86   1
   0   5  -5 1362.17   29.52   1
  -5   0   5 1377.21   29.96   4
   0   5   5 1387.65   29.32   1
   0  -5   5 1353.26   35.20   3
   5   0   5 1383.70   28.19   1
   0  -5   5 1374.29   29.27   1
  -5   2  -5 754.694  17.749   4
   2   5  -5 757.174  18.144   1
  -2  -5  -5 752.176  22.464   3
   5  -2  -5 747.393  16.066   1
  -2  -5  -5 743.764  17.611   1
   2   5   5 750.587  18.246   1
  -5   2   5 733.116  22.344   2
  -5   2   5 743.024  18.976   4
   5  -2   5 760.152  18.011   1
  -2  -5   5 803.454  23.071   3
  -4  -5  -5 874.633  25.846   3
   5  -4  -5 885.226  20.295   1
   4   5  -5 870.257  20.210   1
   5  -4   5 858.753  21.510   1
  -5   4   5 862.624  22.423   4
  -5   4   5 870.048  26.024   2
  -4  -5   5 875.428  26.843   3
   4   5   5 907.239  20.983   1
   5  -6  -5 333.328  11.818   1
  -6  -5  -5 332.044  13.958   3
   5  -6   5 347.983  12.685   1
  -6  -5   5 361.197  15.871   3
   6   5   5 348.058  10.918   1
  -3   6  -5 417.636  12.577   1
   3  -6  -5 383.734  12.286   1
  -6  -3  -5 396.263  13.833   3
   3  -6   5 371.857  12.602   1
   6   3   5 380.542  10.766   1
  -6  -3   5 382.846  15.983   3
   1  -6  -5 738.817  18.741   1
  -1   6  -5 706.645  18.851   1
  -1   6   5 736.068  18.544   1
  -6  -1   5 772.454  19.492   4
   1  -6   5 756.918  19.100   1
   6   1   5 753.268  17.053   1
  -6   1  -5 1264.67   28.37   4
  -1  -6  -5 1295.01   28.21   1
   1   6  -5 1277.90   28.78   1
  -1  -6   5 1246.84   27.80   1
  -6   1   5 1247.20   29.34   4
   6  -1   5 1268.14   27.13   1
  -1  -6   5 1228.94   34.57   3
   1   6   5 1276.31   28.65   1
  -3  -6  -5 456.834  17.031   3
   6  -3  -5 462.827  11.887   1
   3   6  -5 492.539  13.691   1
  -6   3  -5 454.360  12.955   4
  -3  -6   5 465.748  17.431   3
   6  -3   5 455.055  13.370   1
   3   6   5 461.532  13.751   1
  -6   3   5 470.583  14.823   4
   6  -5  -5 247.324   9.322   1
  -5  -6  -5 255.788  12.118   3
   5   6  -5 264.091   9.209   1
   6  -5   5 245.794  10.194   1
   5   6   5 252.364   9.546   1
  -6   5   5 262.811  11.055   4
  -5  -6   5 253.197  12.926   3
   4  -7  -5 243.955  10.300   1
   7   4   5 256.597   8.622   1
  -7  -4   5 253.790  13.448   3
   4  -7   5 264.066  11.108   1
  -2   7  -5 627.366  17.939   1
   2  -7  -5 635.793  17.922   1
  -7  -2   5 627.326  18.179   4
   7   2   5 644.091  15.291   1
   2  -7   5 638.814  18.309   1
   0   7  -5 428.717  13.771   1
   0  -7  -5 407.089  13.055   1
   0  -7   5 414.099  16.273   3
   0  -7   5 414.280  13.031   1
  -7   0   5 393.713  13.567   4
   0   7   5 435.426  13.422   1
   7   0   5 428.528  11.316   1
  -7   2  -5 642.583  17.499   4
   2   7  -5 644.491  18.071   1
  -2  -7  -5 626.792  22.242   3
   2   7   5 630.192  17.934   1
  -7   2   5 650.857  18.958   4
  -2  -7   5 660.050  22.422   3
   7  -2   5 657.539  16.707   1
  -4  -7  -5 210.677  11.406   3
   4   7  -5 201.612   8.596   1
  -7   4   5 182.453   9.403   4
   7  -4   5 213.291   8.970   1
   4   7   5 201.089   8.848   1
   1  -8  -5 297.755  11.654   1
  -1   8   5 319.035  11.905   1
   1  -8   5 321.192  11.979   1
  -8  -1   5 296.601  12.112   4
   1  -8   5 318.464  14.507   3
  -1  -8  -5 220.293  12.546   3
   1   8  -5 206.920   9.610   1
  -1  -8   5 192.740  11.211   3
   1   8   5 211.090   9.492   1
  -8   1   5 193.830   9.601   4
   0   0  -6 -6.9443  0.7442   1
   0   0   6 -7.1822  0.7549   1
   1  -1  -6 7445.25  140.28   1
  -1  -1  -6 7655.92  145.37   1
   1  -1   6 7540.31  144.61   1
  -1  -1   6 7505.01  141.89   4
  -1   1   6 7376.42  143.20   1
  -1  -1   6 7183.49  171.89   3
  -1  -1   6 7314.19  142.32   1
   0  -2  -6 1.34234 1.03578   1
   0   2  -6 0.66096 1.04348   1
  -2   0  -6 3.08278 1.14548   1
   2   0  -6 0.97603 0.89371   1
   0  -2   6 0.03374 1.04207   1
   0  -2   6 0.99707 1.42113   3
  -2   0   6 0.61476 0.70133   1
   0   2   6 0.33338 1.07301   1
   2   0   6 -0.6036  0.9962   1
   2  -2  -6 0.52987 0.83223   1
  -2  -2   6 0.85258 1.17558   2
   2  -2   6 2.67517 1.25441   1
  -2  -2   6 0.00444 0.78075   1
  -2  -2   6 -0.3799  0.9307   4
  -2  -2   6 9.95421 2.32117   3
  -2   2   6 2.93544 0.95741   1
   2   2   6 -0.8259  1.0028   1
  -3  -1  -6 9110.46  168.69   1
  -3  -1  -6 8921.48  198.38   3
  -1   3  -6 9068.96  167.62   1
   1  -3  -6 9024.07  168.00   1
  -3  -1   6 8642.41  170.93   4
  -3  -1   6 8845.78  203.27   2
   3   1   6 8809.04  172.81   1
  -1   3   6 8881.60  167.04   1
   1  -3   6 8635.96  163.69   1
  -3  -1   6 8688.70  199.28   3
  -1  -3  -6 3978.48   74.47   1
  -3   1  -6 3942.35   74.04   1
   1   3  -6 3956.72   74.53   1
   3  -1  -6 3974.18   75.61   1
   1   3   6 4064.55   74.84   1
  -1  -3   6 3824.33   89.49   3
   3  -1   6 3995.20   74.96   1
  -3   1   6 3966.88   90.30   2
  -1  -3   6 3826.58   74.25   1
   3   3  -6 3763.49   71.11   1
   3  -3  -6 3872.38   71.60   1
  -3  -3  -6 3856.73   71.30   1
  -3  -3  -6 3737.43   85.95   3
  -3  -3   6 3640.01   87.48   3
   3   3   6 3790.94   72.26   1
  -3   3   6 3710.11   87.72   2
   3  -3   6 3845.29   72.95   1
  -4  -2  -6 2.19871 1.47353   3
   2  -4  -6 1.07168 1.08916   1
  -2   4  -6 -0.4452  1.1027   1
   4   2  -6 3.14866 0.97337   1
   2  -4   6 0.71731 1.25142   1
  -2   4   6 -0.2591  0.9506   1
  -4  -2   6 0.05700 1.29535   4
   4   2   6 0.56936 1.09707   1
  -4  -2   6 9.39463 2.83932   3
   0  -4   6 17.8958  2.2787   1
   2   4  -6 1.76927 1.23693   1
  -4   2  -6 0.72359 1.25768   4
   4  -2  -6 3.18247 1.01828   1
  -2  -4  -6 0.18218 0.82010   1
  -2  -4  -6 5.14253 2.39639   3
  -2  -4   6 1.61137 2.05501   3
   2   4   6 2.39957 1.26514   1
  -4   2   6 1.81756 1.95278   2
   4   4  -6 0.68622 1.17637   1
   4  -4  -6 10.1666  1.9954   1
  -4  -4  -6 7.89770 2.54435   3
   4  -4   6 1.93878 1.61995   1
  -4   4   6 3.30298 2.40167   2
   4   4   6 5.98504 1.78586   1
  -4  -4   6 0.84103 2.36502   3
  -5  -3  -6 2618.38   60.79   3
   3  -5  -6 2576.58   51.83   1
  -3   5  -6 2624.02   52.16   1
   5   3  -6 2549.52   48.81   1
  -3   5   6 2473.04   62.55   2
   5   3   6 2554.98   50.89   1
   3  -5   6 2568.27   52.88   1
  -5  -3   6 2570.98   63.89   3
   1  -5  -6 1805.52   37.85   1
  -1   5  -6 1814.85   38.28   1
  -1   5   6 1818.72   37.74   1
  -5  -1   6 1875.04   38.61   4
   1  -5   6 1813.75   38.34   1
   5   1   6 1846.22   36.94   1
   5  -1  -6 4180.68   76.91   1
  -1  -5  -6 4156.22   79.89   1
   1   5  -6 4165.14   80.42   1
  -5   1  -6 4177.78   80.39   4
  -1  -5   6 4159.17   96.63   3
  -5   1   6 4154.68   97.20   2
  -1  -5   6 4110.35   79.78   1
   1   5   6 4152.30   80.34   1
  -5   1   6 4169.10   81.66   4
   5  -1   6 4212.86   79.77   1
  -3  -5  -6 2452.57   60.17   3
   3   5  -6 2468.55   49.50   1
   5  -3  -6 2518.88   48.31   1
  -5   3  -6 2548.45   49.14   4
  -3  -5   6 2386.30   60.95   3
   5  -3   6 2457.83   50.24   1
   3   5   6 2498.67   50.16   1
  -5   3   6 2454.15   51.58   4
  -5   3   6 2397.13   60.94   2
   5  -5  -6 1607.97   35.21   1
   5   5  -6 1657.32   34.02   1
  -5  -5  -6 1647.97   42.59   3
   5  -5   6 1608.10   36.71   1
  -5  -5   6 1619.26   44.59   3
   5   5   6 1606.78   35.12   1
   4  -6  -6 -1.0249  1.4390   1
  -6  -4   6 1.73513 2.69882   3
   4  -6   6 3.93207 2.21090   1
   6   4   6 0.58949 1.46328   1
   2  -6  -6 1.59339 1.53415   1
  -2   6  -6 7.51305 2.19082   1
   6   2   6 0.94041 1.28304   1
  -6  -2   6 7.12656 2.44654   4
  -2   6   6 1.63039 1.55148   1
   2  -6   6 0.06148 1.53543   1
   0   6  -6 -0.0559  1.5292   1
   0  -6  -6 1.36230 1.43537   1
   6   0   6 1.37310 1.35742   1
   0   6   6 5.15482 1.86318   1
   0  -6   6 4.07749 1.75687   1
  -6   0   6 1.99706 1.97693   4
   0  -6   6 2.10457 2.63062   3
   2   6  -6 1.97028 1.69381   1
  -2  -6  -6 0.35481 1.37462   1
  -2  -6  -6 4.03795 3.09247   3
  -6   2  -6 4.63910 2.05434   4
   2   6   6 1.19142 1.64077   1
  -2  -6   6 2.99057 2.72655   3
   6  -2   6 -1.1524  1.2913   1
  -6   2   6 1.22908 1.99048   4
   6  -4  -6 1.85254 1.47366   1
  -4  -6  -6 6.28759 2.99339   3
   4   6  -6 -0.2644  1.3963   1
  -4  -6   6 5.55429 3.25013   3
  -6   4   6 -1.3829  1.8517   4
   6  -4   6 0.72260 1.64309   1
   4   6   6 -1.4355  1.4086   1
   3  -7  -6 1365.38   32.37   1
   7   3   6 1385.72   29.65   1
   3  -7   6 1379.62   33.32   1
  -1   7  -6 1510.89   34.79   1
   1  -7  -6 1491.57   34.38   1
  -1   7   6 1531.97   34.27   1
  -7  -1   6 1471.92   34.78   4
   1  -7   6 1536.19   41.14   3
   7   1   6 1509.83   31.74   1
   1  -7   6 1540.54   34.72   1
  -1  -7  -6 1582.25   35.14   1
   1   7  -6 1572.76   35.85   1
  -7   1   6 1582.19   36.58   4
  -1  -7   6 1537.30   42.66   3
   7  -1   6 1615.48   33.69   1
   1   7   6 1550.19   35.52   1
   3   7  -6 705.291  19.445   1
  -3  -7  -6 708.293  24.099   3
   7  -3   6 714.810  19.093   1
   3   7   6 705.208  19.795   1
  -7   3   6 771.961  21.305   4
   0  -8  -6 1.62022 1.77918   1
   0   8  -6 -1.5189  1.8330   1
  -8   0   6 1.56486 2.20201   4
   0   8   6 0.34085 1.99786   1
   0  -8   6 -1.6762  2.6187   3
   0  -1  -7 923.080  19.225   1
  -1   0  -7 907.049  19.227   1
   1   0  -7 929.176  19.041   1
   0  -1   7 906.231  21.373   3
   1   0   7 914.539  19.497   1
   0   1   7 913.166  19.178   1
   0  -1   7 938.421  19.442   1
  -1   0   7 914.897  18.737   1
  -2  -1  -7 3063.75   67.41   3
  -2  -1  -7 3004.33   57.44   1
   1  -2  -7 3016.92   57.56   1
   1  -2   7 3033.43   58.26   1
  -2  -1   7 2998.39   57.43   4
   1  -2   7 3060.83   67.48   3
  -2  -1   7 3114.36   68.79   2
  -2  -1   7 3047.58   56.40   1
   2   1   7 2976.00   57.94   1
  -1   2   7 3021.55   57.33   1
  -2  -1   7 2970.76   69.06   3
  -2   1  -7 2367.12   46.08   1
   2  -1  -7 2394.98   45.40   1
   1   2   7 2390.57   46.27   1
  -1  -2   7 2374.20   44.42   4
  -2   1   7 2323.29   44.74   1
  -1  -2   7 2455.67   53.37   2
  -1  -2   7 2348.23   45.74   1
  -1  -2   7 2373.10   54.72   3
   2  -1   7 2393.75   46.60   1
  -3  -2  -7 1125.30   23.51   1
  -3  -2  -7 1147.10   27.31   3
   2  -3  -7 1129.51   24.01   1
  -2   3   7 1126.39   23.53   1
  -3  -2   7 1147.80   29.74   3
   3   2   7 1144.96   24.45   1
   2  -3   7 1149.12   25.04   1
  -3  -2   7 1163.09   23.91   4
  -3   0  -7 2286.68   44.58   1
   0  -3  -7 2353.49   45.27   1
   3   0  -7 2320.60   43.84   1
   0  -3   7 2307.50   45.45   1
   0  -3   7 2305.33   53.51   3
  -3   0   7 2329.42   45.52   4
   3   0   7 2316.12   45.46   1
  -3   0   7 2276.60   54.34   2
   0   3   7 2305.52   45.25   1
   2   3  -7 509.797  11.780   1
  -2  -3  -7 455.146  11.639   1
  -3   2  -7 479.198  11.915   1
  -2  -3  -7 464.331  13.733   3
   3  -2  -7 474.308  11.220   1
  -2  -3   7 474.390  14.673   3
  -3   2   7 463.774  15.031   2
   3  -2   7 466.108  12.401   1
   2   3   7 476.224  12.274   1
  -4  -3  -7 1416.32   34.68   3
   4   3  -7 1371.14   28.35   1
   3  -4  -7 1409.75   29.95   1
  -4  -3   7 1434.09   37.40   3
  -4  -3   7 1428.80   29.83   4
   4   3   7 1393.06   30.07   1
   3  -4   7 1409.41   31.11   1
  -1   4  -7 867.466  20.027   1
   1  -4  -7 860.992  19.658   1
   4   1  -7 869.476  17.644   1
  -4  -1   7 869.636  19.715   4
   4   1   7 856.371  19.428   1
  -4  -1   7 881.962  23.541   2
   1  -4   7 862.065  22.817   3
  -1   4   7 839.891  19.340   1
   1  -4   7 879.756  20.258   1
   1   4  -7 626.439  15.193   1
  -4   1  -7 614.039  14.025   1
  -1  -4  -7 606.347  14.890   1
   4  -1  -7 608.911  13.216   1
  -1  -4   7 626.948  14.865   1
  -4   1   7 592.637  18.382   2
  -1  -4   7 617.428  18.027   3
   1   4   7 626.386  15.303   1
  -4   1   7 617.332  15.420   4
   4  -1   7 604.232  15.135   1
  -3  -4  -7 1077.69   28.18   3
   3   4  -7 1050.14   23.13   1
  -3  -4  -7 1078.28   23.06   1
   4  -3  -7 1038.12   22.75   1
  -4   3   7 1056.74   29.57   2
  -3  -4   7 1074.33   29.46   3
   3   4   7 1064.82   24.06   1
   4  -3   7 1047.43   24.33   1
   4  -5  -7 876.515  21.441   1
   5   4  -7 892.426  19.532   1
   4  -5   7 874.955  22.596   1
   5   4   7 881.560  21.191   1
  -5  -4   7 886.811  27.403   3
  -2   5  -7 390.615  11.741   1
   2  -5  -7 394.361  11.483   1
  -5  -2   7 377.685  11.318   4
   2  -5   7 385.888  12.014   1
  -2   5   7 378.518  10.966   1
   5   2   7 380.614  10.814   1
  -5  -2   7 369.741  14.521   3
   0  -5  -7 1213.89   26.73   1
   0   5  -7 1200.09   26.99   1
   0  -5   7 1213.02   31.69   3
  -5   0   7 1226.80   32.43   2
   0  -5   7 1226.96   26.91   1
   5   0   7 1190.53   26.03   1
   0   5   7 1145.22   26.40   1
  -5   0   7 1205.13   27.13   4
   2   5  -7 712.006  17.965   1
  -2  -5  -7 724.165  21.829   3
  -5   2  -7 736.099  17.129   4
  -2  -5  -7 733.317  17.732   1
   5  -2  -7 744.733  16.068   1
  -5   2   7 714.520  18.771   4
   2   5   7 727.119  18.362   1
   5  -2   7 712.763  18.127   1
  -2  -5   7 745.170  22.327   3
  -5   2   7 742.852  22.560   2
   5  -4  -7 646.468  16.465   1
   4   5  -7 664.288  16.610   1
  -4  -5  -7 674.607  20.704   3
  -4  -5   7 666.441  22.061   3
   4   5   7 659.403  17.488   1
   5  -4   7 663.490  18.050   1
   5  -6  -7 253.625  10.001   1
  -6  -5   7 248.664  13.191   3
   6   5   7 256.539   9.515   1
   5  -6   7 257.067  10.874   1
   3  -6  -7 370.320  12.177   1
  -6  -3   7 389.611  16.005   3
   6   3   7 364.214  11.074   1
   3  -6   7 377.636  12.996   1
  -1   6  -7 554.998  15.984   1
   1  -6  -7 571.298  15.847   1
   6   1   7 573.151  14.705   1
   1  -6   7 588.154  16.346   1
   1  -6   7 590.540  18.757   3
  -6  -1   7 574.168  16.049   4
  -1   6   7 591.883  15.807   1
  -1  -6  -7 1098.54   25.48   1
   1   6  -7 1112.37   26.19   1
  -6   1   7 1094.89   26.57   4
   6  -1   7 1098.41   25.03   1
  -1  -6   7 1098.43   30.99   3
   1   6   7 1105.66   26.14   1
   3   6  -7 444.794  12.938   1
   6  -3  -7 398.869  10.906   1
  -3  -6  -7 399.237  15.493   3
   3   6   7 415.601  13.060   1
   6  -3   7 395.397  12.727   1
  -6   3   7 408.810  13.885   4
  -3  -6   7 390.966  15.750   3
   6  -5  -7 224.821   8.944   1
   5   6  -7 229.047   8.613   1
   6  -5   7 251.173  10.274   1
  -5  -6   7 229.880  12.382   3
   5   6   7 237.376   9.425   1
  -6   5   7 229.273  10.617   4
   2  -7  -7 564.071  16.966   1
  -2   7  -7 574.170  17.144   1
   7   2   7 578.683  14.969   1
  -7  -2   7 592.264  17.076   4
   2  -7   7 584.782  17.552   1
   2  -7   7 575.258  19.858   3
   0  -7  -7 335.562  11.707   1
   0   7  -7 356.529  12.384   1
  -7   0   7 333.124  12.110   4
   0  -7   7 338.755  14.189   3
   7   0   7 331.393  10.382   1
   0   7   7 341.270  11.947   1
  -2  -7  -7 482.339  18.195   3
   2   7  -7 467.391  14.782   1
   7  -2   7 460.267  13.846   1
  -7   2   7 477.361  15.597   4
  -2  -7   7 458.754  17.818   3
   2   7   7 454.462  14.804   1
   0   0  -8 4486.32   84.99   1
   0   0   8 4590.46   85.07   1
   1  -1  -8 466.975  11.177   1
  -1   1  -8 464.730  11.506   1
  -1  -1   8 463.237  12.552   3
  -1   1   8 453.734  10.835   1
  -1  -1   8 449.854  10.977   1
   1   1   8 478.598  11.611   1
  -1  -1   8 454.667   9.913   4
   2   0  -8 6836.11  133.48   1
  -2   0  -8 7105.13  133.29   1
  -2   0   8 6999.24  132.62   1
   0  -2   8 6927.78  159.87   3
   2   0   8 7035.52  132.32   1
   0   2   8 6990.86  129.20   1
   0  -2   8 6898.67  133.93   1
  -2  -2  -8 4953.77   93.52   1
  -2  -2  -8 5000.53  110.40   3
   2  -2  -8 5037.54   93.36   1
   2  -2   8 4987.24   94.51   1
  -2  -2   8 4916.89   94.16   4
   2   2   8 4980.60   94.12   1
  -2  -2   8 5150.16  111.11   2
  -2   2   8 4979.69   92.70   1
  -2  -2   8 4920.73  112.38   3
  -3  -1  -8 5.51522 1.24383   1
  -3  -1   8 13.8138  1.8967   4
   1  -3   8 10.7791  1.9436   1
  -3  -1   8 9.52320 2.23921   2
  -3   1  -8 4.56636 1.31309   1
   1   3  -8 7.71665 1.62564   1
  -3   1   8 9.66185 2.43920   2
   3  -1   8 9.00910 1.89371   1
   1   3   8 6.86604 1.66019   1
  -1  -3   8 5.87553 1.44123   1
  -3  -3  -8 118.430   4.918   1
   3   3  -8 123.047   4.858   1
   3  -3  -8 137.708   5.248   1
   3  -3   8 123.536   5.748   1
  -3  -3   8 124.793   6.983   3
   3   3   8 123.413   5.671   1
   2  -4  -8 2834.99   55.91   1
   2  -4   8 2861.31   56.93   1
  -2   4   8 2876.52   55.36   1
  -4  -2   8 2770.30   67.93   3
  -4  -2   8 2856.18   55.92   4
   4   2   8 2806.88   55.90   1
   0  -4  -8 3699.66   71.09   1
   0   4  -8 3655.26   71.30   1
   4   0  -8 3746.52   68.81   1
  -4   0   8 3585.44   71.60   4
  -4   0   8 3741.68   85.65   2
   0  -4   8 3652.48   71.19   1
   4   0   8 3677.27   71.08   1
   0  -4   8 3686.31   84.40   3
   0   4   8 3693.04   71.11   1
   2   4  -8 2474.16   51.78   1
  -2  -4  -8 2672.89   62.06   3
   4  -2  -8 2659.46   50.68   1
  -4   2  -8 2652.81   51.54   1
  -2  -4  -8 2620.71   51.84   1
  -4   2   8 2611.76   63.63   2
  -2  -4   8 2671.20   62.84   3
   4  -2   8 2592.18   52.76   1
   2   4   8 2676.58   52.71   1
   4   4  -8 2740.05   53.76   1
   4  -4  -8 2805.33   54.70   1
   4   4   8 2766.23   55.45   1
  -4   4   8 2681.99   67.62   2
   4  -4   8 2775.25   56.32   1
  -4  -4   8 2694.85   67.47   3
   3  -5  -8 13.4227  2.4582   1
  -5  -3   8 18.4676  3.0286   4
  -5  -3   8 24.5200  4.5703   3
   5   3   8 13.4755  2.5001   1
   1  -5  -8 7.17527 1.88565   1
  -1   5  -8 4.36117 1.78336   1
   1  -5   8 6.67192 1.97694   1
  -1   5   8 5.99693 1.78222   1
   1  -5   8 6.15814 2.50703   3
  -5  -1   8 7.80127 2.13382   4
   5   1   8 7.42262 1.85893   1
   1   5  -8 16.8497  2.5446   1
   5  -1  -8 11.1469  1.4340   1
   1   5   8 9.61863 2.13485   1
   5  -1   8 7.48133 2.01051   1
  -5   1   8 10.6459  2.3859   4
  -1  -5   8 9.46385 2.78216   3
  -5   1   8 12.0289  3.1513   2
  -3  -5  -8 118.479   7.196   3
   5  -3  -8 115.578   4.990   1
   3   5  -8 108.437   5.485   1
   5  -3   8 111.841   6.023   1
  -5   3   8 109.811   6.342   4
  -3  -5   8 105.398   7.334   3
   3   5   8 110.910   5.965   1
   5   5  -8 14.4310  2.4116   1
   5  -5  -8 15.1553  2.7454   1
   5   5   8 21.5466  3.2162   1
   5  -5   8 18.2724  3.2941   1
  -5  -5   8 19.0488  4.3770   3
   4  -6  -8 953.861  24.151   1
   6   4   8 947.367  23.160   1
   4  -6   8 973.255  25.417   1
  -6  -4   8 989.006  30.745   3
   2  -6  -8 1495.26   33.44   1
  -2   6  -8 1458.45   33.54   1
   6   2   8 1474.64   32.07   1
   2  -6   8 1480.86   34.12   1
   2  -6   8 1505.82   38.71   3
  -6  -2   8 1501.66   33.32   4
   0   6  -8 2010.64   43.78   1
   0  -6  -8 2021.81   43.18   1
   0  -6   8 2054.11   51.39   3
   0   6   8 2044.32   43.49   1
   0  -6   8 2084.22   43.45   1
  -6   0   8 2042.42   44.00   4
   6   0   8 2070.03   42.46   1
  -2  -6  -8 1721.36   36.57   1
   2   6  -8 1689.57   37.17   1
  -2  -6  -8 1756.37   44.78   3
  -6   2   8 1650.55   38.06   4
  -2  -6   8 1652.35   44.50   3
   2   6   8 1667.59   37.35   1
   6  -2   8 1713.34   36.96   1
   6  -4  -8 839.881  20.355   1
   4   6  -8 849.294  21.041   1
   6  -4   8 864.724  22.484   1
  -6   4   8 829.188  23.267   4
  -4  -6   8 842.494  27.162   3
   4   6   8 874.800  22.375   1
   3  -7  -8 6.74756 2.51160   1
   7   3   8 23.8368  3.1178   1
   3  -7   8 13.9266  3.1667   1
   1  -7  -8 65.3727  5.0221   1
  -1   7  -8 53.2272  4.8663   1
   7   1   8 50.4773  3.9619   1
  -7  -1   8 49.3622  4.7105   4
  -1   7   8 50.1960  4.6314   1
   1  -7   8 43.3034  4.4388   1
   1  -7   8 54.2503  5.7530   3
   1   7  -8 3.93498 2.19418   1
  -1  -7  -8 3.46648 1.85474   1
  -7   1   8 5.44585 2.52561   4
  -1  -7   8 7.78503 3.13182   3
   7  -1   8 5.33663 2.01407   1
   1   7   8 5.75452 2.31130   1
   3   7  -8 3.41345 2.10509   1
  -3  -7  -8 5.00080 3.28396   3
   7  -3   8 4.27913 2.08120   1
  -3  -7   8 10.6126  3.6072   3
   3   7   8 2.11565 2.08542   1
  -7   3   8 2.66243 2.52361   4
  -1   0  -9 2007.11   39.90   1
   0   1  -9 1936.80   39.88   1
   1   0  -9 2007.59   39.65   1
   0  -1  -9 1986.89   39.77   1
   1   0   9 2036.98   40.22   1
  -1   0   9 2023.66   39.27   1
   0  -1   9 2026.26   39.98   1
   0   1   9 2039.87   39.80   1
   2   1  -9 1814.82   35.53   1
  -2  -1  -9 1727.42   35.58   1
   1  -2  -9 1767.40   35.73   1
   2   1   9 1773.30   36.24   1
  -2  -1   9 1803.62   34.87   4
   1  -2   9 1786.60   36.35   1
  -1   2   9 1775.87   35.44   1
  -2  -1   9 1748.10   42.03   2
   2  -1  -9 366.689   9.481   1
  -1  -2  -9 363.978   9.881   1
  -2   1  -9 352.843   9.908   1
  -1  -2   9 364.709   9.606   1
   1   2   9 353.686  10.017   1
  -1  -2   9 360.098   9.955   2
  -2   1   9 351.860   8.815   1
   2  -1   9 346.479  10.238   1
  -1  -2   9 361.860  10.851   3
  -3  -2  -9 1746.76   35.87   1
   2  -3  -9 1757.69   36.29   1
  -3  -2   9 1817.84   42.60   2
  -3  -2   9 1801.50   35.59   4
  -2   3   9 1802.34   35.72   1
   2  -3   9 1777.40   37.29   1
  -3  -2   9 1769.82   43.91   3
   3   2   9 1760.53   36.84   1
   3   0  -9 984.162  20.748   1
   0  -3  -9 973.749  21.802   1
  -3   0  -9 985.866  21.381   1
   3   0   9 1041.14   22.43   1
   0  -3   9 990.491  24.659   3
   0   3   9 955.872  21.727   1
   0  -3   9 975.483  21.893   1
  -3   0   9 982.842  26.127   2
  -3   0   9 968.264  21.426   4
  -3   2  -9 885.674  20.405   1
  -2  -3  -9 903.436  20.214   1
   3  -2  -9 889.235  19.623   1
  -2  -3   9 884.994  24.057   3
   3  -2   9 882.604  21.024   1
   2   3   9 910.760  20.886   1
   3  -4  -9 465.682  13.016   1
  -4  -3   9 477.896  16.616   3
   4   3   9 491.163  13.608   1
   3  -4   9 473.508  14.027   1
   4   1  -9 1002.73   21.06   1
   1  -4  -9 992.951  22.810   1
   4   1   9 1021.97   22.95   1
   1  -4   9 1003.53   25.72   3
  -4  -1   9 999.949  22.433   4
   1  -4   9 1016.20   23.29   1
  -1   4   9 999.932  22.561   1
  -4  -1   9 999.328  26.858   2
   1   4  -9 1319.40   28.68   1
  -4   1  -9 1312.19   27.64   1
   4  -1  -9 1319.96   26.75   1
  -1  -4  -9 1327.62   28.54   1
   4  -1   9 1321.16   29.00   1
  -1  -4   9 1300.59   33.46   3
  -4   1   9 1306.72   34.65   2
  -4   1   9 1306.39   28.85   4
   1   4   9 1307.05   28.80   1
  -1  -4   9 1324.96   28.10   1
  -3  -4  -9 572.276  14.674   1
   3   4  -9 570.027  14.681   1
   4  -3  -9 571.805  14.377   1
  -4   3   9 571.388  19.335   2
  -3  -4   9 593.661  18.721   3
   3   4   9 555.381  15.513   1
   4  -3   9 606.979  16.141   1
   4  -5  -9 357.659  11.736   1
   4  -5   9 377.357  12.868   1
   5   4   9 378.357  12.094   1
  -5  -4   9 378.567  15.408   3
   2  -5  -9 589.445  15.835   1
   5   2   9 570.668  15.290   1
   2  -5   9 572.630  16.287   1
  -5  -2   9 577.846  15.182   4
   0   5  -9 449.786  13.432   1
   0  -5  -9 462.115  13.318   1
   5   0  -9 459.324  10.644   1
   0   5   9 460.240  13.276   1
   5   0   9 469.370  13.192   1
   0  -5   9 492.415  15.349   3
  -5   0   9 469.248  16.095   2
   0  -5   9 455.441  13.215   1
  -5   0   9 460.615  13.299   4
   2   5  -9 1046.37   24.87   1
   5  -2  -9 1082.83   22.92   1
  -2  -5  -9 1100.98   24.80   1
  -2  -5  -9 1125.55   29.66   3
   5  -2   9 1070.37   25.40   1
   2   5   9 1049.97   25.37   1
  -5   2   9 1096.28   31.05   2
  -2  -5   9 1031.44   29.64   3
  -5   2   9 1067.91   25.79   4
   5  -4  -9 474.506  13.238   1
   4   5  -9 474.792  13.316   1
   4   5   9 465.827  14.367   1
  -4  -5   9 470.253  17.546   3
   5  -4   9 462.942  14.658   1
   3  -6  -9 727.392  19.582   1
   6   3   9 705.740  18.527   1
   3  -6   9 725.709  20.404   1
  -1   6  -9 340.030  11.781   1
   1  -6  -9 329.673  11.321   1
  -6  -1   9 338.419  11.360   4
   1  -6   9 343.034  11.751   1
  -1   6   9 338.668  11.286   1
   1  -6   9 341.532  12.950   3
   6   1   9 322.246  10.597   1
   1   6  -9 523.791  15.478   1
  -1  -6  -9 518.174  14.963   1
   6  -1   9 518.349  14.910   1
  -1  -6   9 519.330  17.788   3
   1   6   9 510.337  15.272   1
  -6   1   9 528.840  15.596   4
   3   6  -9 286.532  10.354   1
   6  -3  -9 285.076   8.857   1
  -6   3   9 278.063  11.333   4
   6  -3   9 293.140  10.823   1
   3   6   9 277.546  10.812   1
  -3  -6   9 287.967  12.895   3
   2  -7  -9 392.144  13.641   1
  -7  -2   9 422.166  13.466   4
   2  -7   9 392.507  13.939   1
   7   2   9 390.144  12.213   1
   0   7  -9 517.587  16.256   1
   0  -7  -9 520.122  15.865   1
   0  -7   9 529.355  18.222   3
   0   7   9 497.881  15.800   1
   7   0   9 491.833  14.458   1
  -7   0   9 520.077  16.076   4
  -2  -7  -9 178.272  10.429   3
   2   7  -9 175.764   8.485   1
   7  -2   9 171.010   8.034   1
  -2  -7   9 180.566  10.082   3
   2   7   9 179.361   8.774   1
  -7   2   9 174.986   8.936   4
   0   0  10 15.6960  2.1813   1
   1   1 -10 4821.26   93.35   1
  -1  -1 -10 4907.66   93.39   1
   1  -1 -10 4894.93   93.23   1
  -1   1 -10 4980.06   93.79   1
  -1   1  10 4978.16   92.82   1
  -1  -1  10 5007.55   93.01   1
   1   1  10 4964.01   93.67   1
   1  -1  10 4986.12   93.90   1
  -1  -1  10 4988.04   93.64   4
  -2   0 -10 120.840   5.082   1
   0  -2 -10 121.073   5.148   1
   2   0 -10 121.503   4.986   1
   2   0  10 120.286   5.502   1
   0   2  10 121.875   5.135   1
   0  -2  10 121.890   4.755   3
   0  -2  10 131.231   5.432   1
  -2  -2 -10 10.6829  1.9049   1
  -2   2 -10 8.74001 1.94692   1
   2  -2 -10 12.8590  2.0193   1
  -2  -2  10 11.7885  2.0566   2
   2   2  10 11.0675  2.0657   1
  -2  -2  10 13.1457  2.5391   3
   2  -2  10 13.9761  2.3229   1
   3   1 -10 2698.53   53.25   1
  -3  -1 -10 2757.42   53.70   1
   1  -3 -10 2709.66   54.23   1
  -3  -1  10 2816.79   64.41   2
   3   1  10 2739.97   54.72   1
  -1   3  10 2712.45   53.82   1
   1  -3  10 2766.89   54.85   1
  -3  -1  10 2775.28   53.63   4
  -1  -3 -10 3760.39   73.72   1
   3  -1 -10 3845.43   72.76   1
  -3   1 -10 3900.14   73.76   1
  -1  -3  10 3778.55   73.27   1
  -1  -3  10 3802.55   87.07   3
   3  -1  10 3813.75   74.57   1
  -3   1  10 3860.35   89.21   2
   1   3  10 3872.59   74.24   1
  -3   3 -10 2811.86   56.13   1
   3  -3 -10 2814.41   55.34   1
  -3  -3 -10 2791.48   55.17   1
   3  -3  10 2798.11   56.76   1
  -3  -3  10 2777.77   66.88   3
   3   3  10 2807.16   56.35   1
   2  -4 -10 84.6516  4.8483   1
   4   2 -10 92.6522  4.2110   1
   4   2  10 82.9383  4.9273   1
   2  -4  10 91.0643  5.3100   1
  -4  -2  10 91.3714  4.5087   4
   0  -4 -10 240.777   8.256   1
   4   0 -10 224.596   6.788   1
   0  -4  10 226.287   8.553   3
   0  -4  10 214.644   7.936   1
   4   0  10 222.167   8.256   1
  -4   0  10 223.399   9.547   2
   0   4  10 210.814   7.868   1
  -4   0  10 220.479   7.807   4
   4  -2 -10 23.8276  2.5399   1
  -4   2 -10 34.4160  3.1700   1
  -2  -4 -10 27.6995  2.9734   1
   2   4  10 26.8545  3.3414   1
  -2  -4  10 27.2003  3.8231   3
   4  -2  10 28.4029  3.1414   1
  -4   2  10 30.0392  4.5720   2
   4  -4 -10 0.99279 1.42843   1
   4  -4  10 0.47183 1.57782   1
  -4  -4  10 -1.0467  2.3080   3
   4   4  10 -1.5195  1.5473   1
   3  -5 -10 1477.56   32.98   1
   5   3  10 1457.86   32.75   1
   3  -5  10 1462.84   33.83   1
  -5  -3  10 1467.74   40.12   3
   1  -5 -10 2291.08   47.49   1
  -1   5  10 2345.31   47.14   1
  -5  -1  10 2253.35   47.04   4
   5   1  10 2243.64   46.96   1
   1  -5  10 2260.20   47.63   1
   1   5 -10 1849.70   39.18   1
   5  -1 -10 1829.16   36.11   1
  -1  -5 -10 1800.64   38.76   1
  -1  -5  10 1772.00   45.39   3
  -5   1  10 1838.25   47.21   2
   5  -1  10 1827.63   39.20   1
   1   5  10 1798.57   39.21   1
  -5   1  10 1823.99   39.44   4
   3   5 -10 1469.38   32.35   1
   5  -3 -10 1498.29   31.33   1
   5  -3  10 1461.62   33.49   1
   3   5  10 1459.90   33.44   1
  -5   3  10 1486.84   34.32   4
  -3  -5  10 1421.59   39.16   3
   5  -5 -10 779.598  20.294   1
   5   5  10 767.243  20.880   1
   5  -5  10 780.776  21.721   1
  -5  -5  10 778.205  25.716   3
   4  -6 -10 15.1940  2.9930   1
   6   4  10 15.5907  2.9792   1
   4  -6  10 18.4275  3.5137   1
   2  -6 -10 4.75888 2.09287   1
  -6  -2  10 2.67301 2.06218   4
   6   2  10 3.66602 1.90923   1
   2  -6  10 2.49291 1.95567   1
   0   6 -10 23.4486  3.4753   1
   0  -6 -10 29.4248  3.6857   1
   0  -6  10 27.1861  4.0997   3
   6   0  10 28.0118  3.4900   1
  -6   0  10 26.5781  3.7201   4
   0   6  10 26.7742  3.6925   1
  -2  -6 -10 2.75357 1.67902   1
   2   6 -10 4.99461 2.17922   1
  -6   2  10 2.04339 2.20802   4
   2   6  10 2.59215 2.07679   1
  -2  -6  10 3.64314 2.64434   3
   6  -2  10 3.70987 2.06483   1
   4   6 -10 3.25745 1.99513   1
   6  -4 -10 3.07174 1.71661   1
   6  -4  10 5.15447 2.36445   1
  -6   4  10 3.28239 2.45719   4
  -4  -6  10 4.11688 2.98453   3
   4   6  10 3.01729 2.19193   1
   1  -7 -10 856.012  23.390   1
  -7  -1  10 924.503  23.294   4
   7   1  10 870.822  21.984   1
  -1  -7 -10 794.890  21.503   1
   1   7 -10 793.959  22.015   1
   1   7  10 792.290  22.059   1
  -7   1  10 812.178  22.287   4
   7  -1  10 792.445  20.970   1
  -1  -7  10 800.954  24.974   3
   0   1 -11 1255.12   27.72   1
   1   0 -11 1301.23   27.55   1
   0   1  11 1312.20   27.55   1
  -1   0  11 1296.68   27.00   1
   1   0  11 1236.67   27.71   1
   0  -1  11 1305.72   27.69   1
   2   1 -11 465.636  12.311   1
   1  -2 -11 465.330  12.506   1
  -2  -1 -11 469.624  12.444   1
  -1   2 -11 462.364  12.823   1
  -2  -1  11 452.710  13.894   2
   2   1  11 466.087  12.912   1
  -1   2  11 466.887  12.131   1
   1  -2  11 456.195  12.861   1
  -1  -2 -11 1575.73   32.95   1
  -2   1 -11 1588.45   33.22   1
   2  -1 -11 1557.96   32.46   1
   1   2  11 1537.00   33.06   1
  -1  -2  11 1543.80   36.84   2
   2  -1  11 1563.41   33.57   1
  -1  -2  11 1561.11   32.34   1
  -1  -2  11 1580.53   37.34   3
   2  -3 -11 409.593  11.890   1
  -3  -2 -11 404.925  11.523   1
   3   2 -11 429.231  11.505   1
   3   2  11 435.702  12.510   1
   2  -3  11 415.447  12.556   1
  -3   0 -11 721.695  17.435   1
   0  -3 -11 737.555  17.928   1
   3   0 -11 728.379  16.899   1
   0   3  11 718.696  17.723   1
  -3   0  11 729.152  16.957   4
  -3   0  11 696.204  20.697   2
   0  -3  11 722.572  17.676   1
   3   0  11 726.380  18.265   1
  -2  -3 -11 1296.80   28.55   1
  -3   2 -11 1348.13   29.10   1
   3  -2 -11 1294.83   28.09   1
   3  -2  11 1298.63   29.52   1
  -2  -3  11 1330.72   33.50   3
   2   3  11 1297.73   29.28   1
   3  -4 -11 547.819  15.204   1
   4   3  11 544.598  15.630   1
  -4  -3  11 579.158  18.735   3
   3  -4  11 549.300  16.127   1
   1  -4 -11 642.199  16.926   1
   4   1 -11 634.497  15.329   1
  -4  -1  11 660.178  16.062   4
  -1   4  11 655.820  16.623   1
   1  -4  11 652.729  17.199   1
  -4  -1  11 644.068  19.359   2
   4   1  11 664.793  17.195   1
   4  -1 -11 710.055  16.683   1
  -1  -4 -11 723.776  18.332   1
  -4   1  11 737.810  22.220   2
   1   4  11 728.405  18.544   1
  -4   1  11 712.510  18.130   4
  -1  -4  11 734.071  20.467   3
   4  -1  11 707.060  18.701   1
  -3  -4 -11 677.845  17.186   1
   4  -3 -11 669.627  16.880   1
  -3  -4  11 678.960  20.935   3
   4  -3  11 670.990  18.410   1
   3   4  11 672.384  18.324   1
   4  -5 -11 267.000   9.966   1
  -5  -4  11 256.327  12.378   3
   4  -5  11 256.226  10.617   1
   5   4  11 254.619  10.115   1
   2  -5 -11 751.697  20.041   1
   5   2  11 791.625  20.021   1
   2  -5  11 788.802  20.724   1
   5   0 -11 619.193  14.513   1
   0  -5 -11 620.746  17.109   1
  -5   0  11 637.582  20.266   2
   0   5  11 616.944  16.991   1
   5   0  11 613.522  17.075   1
   0  -5  11 640.038  16.910   1
  -5   0  11 633.819  16.802   4
   5  -2 -11 309.940   9.303   1
  -2  -5 -11 326.464  10.790   1
  -5   2  11 307.550  11.189   4
   5  -2  11 323.308  11.393   1
  -2  -5  11 311.366  12.422   3
   2   5  11 310.158  11.236   1
   5  -4 -11 283.715   9.854   1
   5  -4  11 272.323  10.972   1
   4   5  11 289.804  11.043   1
  -4  -5  11 279.400  12.754   3
   3  -6 -11 208.640   9.158   1
   6   3  11 212.208   8.913   1
   3  -6  11 211.170   9.690   1
   1  -6 -11 622.455  18.007   1
   1  -6  11 628.313  17.847   1
  -6  -1  11 644.871  17.402   4
   6   1  11 611.005  17.148   1
  -1  -6 -11 208.964   9.061   1
  -6   1  11 229.808   9.533   4
  -1  -6  11 242.723  10.614   3
   6  -1  11 228.300   9.448   1
   1   6  11 218.788   9.458   1
  -6   3  11 422.654  14.800   4
   6  -3  11 403.291  14.043   1
  -3  -6  11 430.197  16.309   3
   3   6  11 429.284  14.437   1
   0  -7 -11 217.962   9.619   1
   7   0  11 200.819   8.741   1
   0   7  11 211.924   9.614   1
  -7   0  11 203.856   9.399   4
   0   0 -12 5792.78  110.17   1
   0   0  12 5851.69  110.02   1
   1  -1 -12 4.42692 1.60583   1
  -1   1 -12 5.12201 1.61139   1
  -1  -1 -12 7.95031 1.82450   1
   1   1 -12 3.28696 1.48055   1
   1   1  12 5.58967 1.70422   1
   1  -1  12 4.38880 1.68459   1
  -1  -1  12 6.83266 1.73281   1
  -2   0 -12 2246.30   46.33   1
   0  -2 -12 2287.50   46.45   1
   2   0 -12 2294.21   46.08   1
   0   2 -12 2264.99   46.72   1
   0  -2  12 2335.44   46.44   1
   0   2  12 2305.09   46.36   1
   2   0  12 2253.52   46.91   1
   2  -2 -12 2726.77   52.98   1
   2   2 -12 2644.59   52.93   1
  -2  -2 -12 2672.02   53.05   1
  -2   2 -12 2626.60   53.64   1
   2  -2  12 2631.02   53.80   1
   2   2  12 2568.57   53.49   1
   3   1 -12 4.78816 1.57492   1
   1  -3 -12 1.31138 1.34622   1
  -3  -1 -12 9.32213 1.92275   1
   3   1  12 0.43824 1.34282   1
   1  -3  12 8.30947 2.06331   1
  -3  -1  12 -0.5530  1.7228   2
   3  -1 -12 3.40776 1.49957   1
  -1  -3 -12 2.41655 1.45933   1
  -3   1 -12 -0.3306  1.2497   1
  -3   1  12 0.63891 2.32894   2
   1   3  12 0.83521 1.53687   1
   3  -1  12 5.82685 2.05248   1
  -3  -3 -12 1.31430 1.41007   1
  -3   3 -12 -0.7720  1.4001   1
   3  -3 -12 0.79011 1.33236   1
   3   3  12 0.38134 1.67068   1
  -3  -3  12 2.54989 2.26562   3
   3  -3  12 2.81839 1.76901   1
   4   2 -12 1988.56   40.44   1
   2  -4 -12 1978.89   42.09   1
   2  -4  12 2003.86   42.86   1
   4   2  12 1965.11   42.33   1
   4   0 -12 1980.06   39.92   1
   0  -4 -12 1949.69   41.81   1
   0  -4  12 1956.34   41.37   1
  -4   0  12 2000.69   41.11   4
   4   0  12 1942.63   42.13   1
  -4   0  12 2009.86   49.66   2
   0   4  12 1946.87   41.55   1
   4  -2 -12 2394.24   47.66   1
  -2  -4 -12 2327.14   48.73   1
  -2  -4  12 2384.01   57.16   3
   2   4  12 2386.78   49.59   1
   4  -2  12 2322.72   49.72   1
   4  -4 -12 648.987  17.592   1
  -4  -4  12 687.046  21.821   3
   4   4  12 649.179  18.596   1
   4  -4  12 655.890  18.884   1
   3  -5 -12 3.09459 1.93590   1
   5   3  12 1.90401 1.95624   1
   3  -5  12 5.38661 2.36776   1
   5   1 -12 11.7329  2.0112   1
   1  -5 -12 5.92617 2.10543   1
  -5  -1  12 6.50159 2.48186   2
   1  -5  12 0.40849 1.60115   1
  -5  -1  12 1.92070 1.73490   4
   5  -1 -12 1.09593 1.19627   1
  -1  -5 -12 1.87735 1.66319   1
  -5   1  12 1.43014 1.90748   4
   1   5  12 4.66817 2.10670   1
   5  -1  12 2.36972 1.99074   1
   5  -3 -12 1.60767 1.48895   1
   3   5  12 1.04200 1.98111   1
   5  -3  12 -0.2386  1.6612   1
  -3  -5  12 1.15945 2.30981   3
  -5   3  12 5.24546 2.52638   4
   2  -6 -12 1079.31   27.19   1
   6   2  12 1063.62   26.29   1
   2  -6  12 1093.99   27.45   1
   0  -6 -12 801.197  21.761   1
   0   6  12 795.521  21.503   1
   6   0  12 814.559  21.342   1
  -6   0  12 812.138  21.233   4
   2   6  12 731.535  20.752   1
  -6   2  12 754.560  20.834   4
   6  -2  12 707.461  20.341   1
  -1   0 -13 967.986  23.145   1
   0  -1 -13 982.542  23.092   1
   1   0 -13 1001.66   23.17   1
   0   1 -13 964.700  23.276   1
   1   0  13 987.928  23.317   1
   0  -1  13 998.747  23.002   1
   0   1  13 1012.32   22.99   1
  -1   0  13 1010.23   22.48   1
   1  -2 -13 320.883  10.431   1
   2   1 -13 321.361  10.300   1
  -1   2 -13 316.157  10.711   1
  -2  -1 -13 330.888  10.382   1
   2   1  13 320.482  10.689   1
  -1   2  13 334.424  10.138   1
  -2  -1  13 325.174  11.367   2
   1  -2  13 313.494  10.527   1
  -1  -2 -13 973.327  23.059   1
   2  -1 -13 1008.06   22.87   1
   1   2 -13 986.885  23.261   1
  -2   1 -13 974.285  23.334   1
   1   2  13 952.319  23.165   1
   2  -1  13 977.838  23.671   1
   2  -3 -13 405.911  12.484   1
   3   2 -13 411.431  12.059   1
  -3  -2 -13 418.541  12.298   1
  -2   3 -13 429.510  13.133   1
   3   2  13 410.207  12.938   1
   2  -3  13 410.491  13.031   1
   3   0 -13 450.260  12.618   1
   0  -3 -13 460.900  13.448   1
  -3   0 -13 446.106  12.951   1
   0   3 -13 434.671  13.223   1
  -3   0  13 449.823  12.014   4
  -3   0  13 449.695  15.275   2
   0   3  13 440.755  13.117   1
   3   0  13 447.931  13.675   1
   0  -3  13 448.658  12.948   1
  -3   2 -13 995.443  23.770   1
  -2  -3 -13 960.780  23.167   1
   3  -2 -13 977.957  22.893   1
   3  -2  13 979.875  24.113   1
   2   3  13 961.310  23.845   1
   4   3 -13 421.119  12.107   1
   3  -4 -13 402.015  12.923   1
  -3   4 -13 424.975  13.489   1
   3  -4  13 405.356  13.652   1
   4   3  13 395.739  13.351   1
   4   1 -13 544.408  14.307   1
   1  -4 -13 556.449  15.868   1
   1  -4  13 547.954  15.712   1
   4   1  13 537.568  15.843   1
  -1  -4 -13 568.974  15.985   1
   4  -1 -13 553.915  14.477   1
  -4   1  13 547.257  15.235   4
   1   4  13 561.293  16.049   1
   4  -1  13 544.619  16.297   1
   4  -3 -13 376.767  11.790   1
  -3  -4  13 385.657  14.189   3
   3   4  13 383.959  13.109   1
   4  -3  13 367.477  13.005   1
   2  -5 -13 540.427  16.286   1
   5   2  13 550.973  16.322   1
   2  -5  13 543.950  16.542   1
   5   0 -13 455.215  12.271   1
   0  -5 -13 460.651  14.548   1
   5   0  13 464.494  14.630   1
  -5   0  13 479.243  13.868   4
   0   5  13 455.682  14.315   1
   5  -2 -13 260.335   8.869   1
  -2  -5 -13 258.468  10.009   1
  -5   2  13 275.213  10.558   4
   5  -2  13 258.694  10.596   1
   2   5  13 267.295  10.678   1
   1  -6 -13 385.015  13.669   1
   6   1  13 386.092  13.186   1
  -1  -6 -13 163.512   8.155   1
   6  -1  13 147.505   7.984   1
  -6   1  13 155.633   7.924   4
   1   6  13 159.328   8.276   1
   0   0 -14 0.22986 1.32867   1
   0   0  14 -0.1599  1.3035   1
  -1   1 -14 2203.04   47.02   1
   1   1 -14 2280.64   46.95   1
  -1  -1 -14 2261.71   46.81   1
   1  -1 -14 2263.96   46.76   1
   1   1  14 2230.43   46.89   1
   1  -1  14 2266.87   47.03   1
   0   2 -14 26.5521  3.4219   1
   0  -2 -14 26.1911  3.2841   1
   2   0 -14 29.6158  3.2554   1
  -2   0 -14 22.7796  3.1088   1
   2   0  14 27.7820  3.5560   1
   0  -2  14 28.8025  3.2410   1
   0   2  14 27.8569  3.4369   1
  -2   2 -14 4.68162 1.86543   1
   2  -2 -14 5.08465 1.89527   1
  -2  -2 -14 6.15005 1.93059   1
   2   2 -14 10.1146  2.3154   1
   2   2  14 3.60207 1.95997   1
   2  -2  14 4.85829 2.12240   1
  -3  -1 -14 1271.80   28.75   1
   1  -3 -14 1268.40   29.35   1
  -1   3 -14 1243.61   29.50   1
   3   1 -14 1238.59   28.43   1
   3   1  14 1276.55   29.83   1
   1  -3  14 1323.52   29.52   1
  -3   1 -14 2088.84   43.42   1
  -1  -3 -14 2004.50   43.36   1
   1   3 -14 1999.49   43.29   1
   3  -1 -14 2020.93   42.50   1
  -3   1  14 2036.06   51.94   2
   1   3  14 2057.21   43.68   1
   3  -1  14 2050.72   44.17   1
   3   3 -14 1298.30   29.82   1
   3  -3 -14 1344.03   30.40   1
  -3   3 -14 1351.00   31.07   1
  -3  -3 -14 1309.00   30.04   1
   3   3  14 1328.96   31.28   1
   3  -3  14 1321.86   31.38   1
   2  -4 -14 21.5893  3.3441   1
  -2   4 -14 40.0462  4.0110   1
   4   2 -14 30.9569  3.2291   1
   4   2  14 25.9627  3.7531   1
   2  -4  14 27.8926  3.8391   1
   4   0 -14 59.0628  4.0954   1
   0  -4 -14 54.6447  4.5824   1
   0   4  14 59.4335  4.7726   1
   4   0  14 64.0007  5.0577   1
   4  -2 -14 2.32711 1.64403   1
  -2  -4 -14 2.46273 1.80103   1
   4  -2  14 0.21973 1.87016   1
   2   4  14 2.31088 2.05060   1
   4  -4 -14 1.77193 1.73814   1
   4   4 -14 0.27718 1.61569   1
   4  -4  14 2.02326 1.99239   1
   4   4  14 0.50170 1.94202   1
   3  -5 -14 699.637  19.767   1
   5   3  14 697.934  19.894   1
   5   1 -14 1209.86   27.00   1
   1  -5 -14 1254.74   30.18   1
   5   1  14 1250.56   30.00   1
  -1  -5 -14 796.475  21.020   1
   5  -1 -14 736.090  18.398   1
   5  -1  14 764.780  21.314   1
   1   5  14 741.105  20.817   1
  -5   1  14 784.786  20.308   4
   5  -3 -14 734.447  19.019   1
   5  -3  14 724.920  20.861   1
   0   1 -15 695.508  18.902   1
   1   0 -15 696.080  18.796   1
  -1   0 -15 712.715  19.001   1
   0  -1 -15 698.447  18.696   1
   0  -1  15 691.005  18.257   1
   1   0  15 726.051  18.931   1
   0   1  15 747.938  18.726   1
   1  -2 -15 514.808  15.163   1
  -2  -1 -15 513.901  14.962   1
   2   1 -15 514.684  15.019   1
  -1   2 -15 520.665  15.611   1
   2   1  15 522.275  15.551   1
   1  -2  15 534.787  15.327   1
  -2   1 -15 258.463   9.789   1
  -1  -2 -15 245.668   9.493   1
   1   2 -15 242.678   9.572   1
   2  -1 -15 252.362   9.410   1
   1   2  15 249.952   9.653   1
   2  -1  15 251.495   9.832   1
  -2   3 -15 638.574  18.089   1
   2  -3 -15 618.024  17.626   1
  -3  -2 -15 642.634  17.334   1
   3   2 -15 631.281  17.113   1
   2  -3  15 620.096  17.956   1
   3   2  15 632.037  18.147   1
  -3   0 -15 386.826  12.403   1
   3   0 -15 369.063  11.916   1
   0   3 -15 373.708  12.648   1
   0  -3 -15 385.321  12.778   1
   0   3  15 394.603  12.601   1
   3   0  15 395.738  13.185   1
  -3   0  15 368.516  14.237   2
   3  -2 -15 425.178  13.267   1
   2   3 -15 432.159  13.487   1
  -3   2 -15 438.607  13.896   1
  -2  -3 -15 431.420  13.456   1
   3  -2  15 414.415  14.004   1
   2   3  15 416.933  13.827   1
   4   3 -15 164.732   7.312   1
  -3   4 -15 177.165   8.499   1
   3  -4 -15 172.345   8.237   1
   3  -4  15 169.070   8.554   1
   4   3  15 168.845   8.472   1
   1  -4 -15 462.534  14.774   1
  -1   4 -15 461.619  14.778   1
   4   1 -15 455.917  13.382   1
   4   1  15 451.868  14.854   1
   1  -4  15 459.815  14.394   1
  -1  -4 -15 486.290  15.247   1
   4  -1 -15 494.575  14.194   1
   1   4 -15 490.555  15.209   1
   1   4  15 489.437  15.413   1
   4  -1  15 491.667  15.830   1
  -4   1  15 511.408  14.481   4
   3   4 -15 209.535   8.694   1
   4  -3 -15 198.380   8.590   1
   4  -3  15 199.232   9.473   1
   3   4  15 216.559   9.728   1
   2  -5 -15 287.673  11.387   1
  -2   5 -15 273.791  11.184   1
   5   2  15 277.374  11.189   1
   2  -5  15 273.211  11.180   1
   5   0 -15 199.435   7.499   1
   0  -5 -15 174.545   8.659   1
   5   0  15 175.779   8.810   1
   5  -2 -15 346.913  11.367   1
  -2  -5 -15 351.816  12.605   1
  -5   2  15 359.849  12.767   4
   5  -2  15 339.780  13.078   1
   2   5  15 366.481  13.273   1
   0   0 -16 1285.14   30.35   1
  -1   1 -16 46.1084  4.3356   1
   1  -1 -16 55.8178  4.5512   1
  -1  -1 -16 51.2788  4.3087   1
   1   1 -16 58.0229  4.6441   1
   1   1  16 53.8466  4.6440   1
   1  -1  16 47.5581  4.3941   1
   2   0 -16 1411.65   32.59   1
   0  -2 -16 1400.68   32.78   1
  -2   0 -16 1400.42   32.77   1
   0   2 -16 1427.99   33.12   1
   2   0  16 1427.20   33.18   1
   0   2  16 1474.02   32.64   1
  -2   2 -16 1173.15   28.80   1
  -2  -2 -16 1166.39   28.19   1
   2  -2 -16 1187.08   28.38   1
   2   2 -16 1189.34   28.23   1
   2   2  16 1202.59   28.98   1
   2  -2  16 1174.23   28.73   1
  -3  -1 -16 -0.2264  1.4487   1
   3   1 -16 -1.1395  1.3401   1
   1  -3 -16 1.08433 1.71801   1
  -1   3 -16 -0.5322  1.6269   1
   3   1  16 0.32868 1.85243   1
   1  -3  16 8.16921 2.60292   1
  -3   1 -16 1.05585 1.62248   1
  -1  -3 -16 0.52093 1.63845   1
   3  -1 -16 2.34104 1.76273   1
   1   3 -16 2.56723 1.95730   1
   3  -1  16 0.01385 1.88086   1
   1   3  16 -0.5428  1.7825   1
  -3   3 -16 22.5893  3.6407   1
   3  -3 -16 21.5987  3.4643   1
   3   3 -16 26.1949  3.5667   1
   3   3  16 24.1310  3.9899   1
   3  -3  16 23.1864  3.8006   1
  -2   4 -16 797.095  21.890   1
   2  -4 -16 802.409  21.770   1
   4   2 -16 780.956  20.038   1
   2  -4  16 777.527  21.598   1
   4   2  16 775.850  21.887   1
   0   4 -16 912.104  23.763   1
   0  -4 -16 892.108  23.667   1
   4   0 -16 881.902  22.002   1
   4   0  16 880.738  23.862   1
   2   4 -16 698.329  19.212   1
  -2  -4 -16 671.575  19.140   1
   4  -2 -16 678.877  18.380   1
  -4   2  16 677.597  18.711   4
   2   4  16 649.651  19.494   1
   4  -2  16 651.492  19.654   1
  -1   0 -17 264.657  10.495   1
   0  -1 -17 254.323  10.189   1
   1   0 -17 256.983  10.338   1
   0   1 -17 248.048  10.252   1
   1   0  17 254.370  10.183   1
   1  -2 -17 431.659  14.292   1
  -1   2 -17 437.371  14.553   1
   2   1 -17 445.544  14.210   1
  -2  -1 -17 423.779  14.055   1
   2   1  17 440.282  14.513   1
   1  -2  17 430.286  13.967   1
   2  -1 -17 458.732  14.630   1
   1   2 -17 458.123  14.803   1
  -2   1 -17 464.543  14.950   1
  -1  -2 -17 455.123  14.699   1
   2  -1  17 442.516  14.732   1
   1   2  17 466.281  14.922   1
   3   2 -17 210.277   8.868   1
   2  -3 -17 205.448   9.379   1
  -2   3 -17 209.051   9.516   1
   2  -3  17 204.372   9.390   1
   3   2  17 189.147   9.358   1
   3   0 -17 416.720  13.603   1
  -3   0 -17 422.279  13.945   1
   0   3 -17 436.962  14.567   1
   0  -3 -17 435.916  14.481   1
   3   0  17 440.923  14.702   1
   2   3 -17 180.491   8.610   1
  -3   2 -17 185.796   8.801   1
   3  -2 -17 179.911   8.514   1
  -2  -3 -17 184.388   8.630   1
   2   3  17 182.349   9.061   1
   3  -2  17 181.366   9.002   1
   0   0 -18 0.74255 1.62594   1
  -1  -1 -18 841.143  22.915   1
   1  -1 -18 845.111  22.928   1
  -1   1 -18 842.612  23.079   1
   1   1 -18 865.579  23.040   1
   1   1  18 854.364  22.754   1
  -2   0 -18 2.99520 2.03664   1
   2   0 -18 1.00872 1.85945   1
   0   2 -18 0.70140 1.87794   1
   0  -2 -18 0.86481 1.77474   1
   2   0  18 -0.3954  1.8638   1
  -2   2 -18 1.01375 1.82396   1
  -2  -2 -18 -0.1939  1.6084   1
   2   2 -18 2.48589 1.96527   1
   2  -2 -18 0.10651 1.76661   1
   2   2  18 0.06473 2.03112   1
   2  -2  18 0.66307 2.03434   1
   1   0 -19 175.476   8.837   1
   0   1 -19 176.269   8.974   1
  -1   0 -19 176.308   8.870   1
   0  -1 -19 172.041   8.819   1
   0   0   0    0.00    0.00   0
;
_shelx_hkl_checksum              66174
_shelx_res_file
;
TITL NaTcO4_RT_0m in I4(1)/a
CELL 0.71073 5.3325    5.3325   11.8503 90.000 90.000 90.000
ZERR 4.00 0.0001 0.0001 0.0003 0.000 0.000 0.000
LATT 2
SYMM -y+1/4, x+3/4, z+3/4
SYMM y+1/4, -x+1/4, z+1/4
SYMM -x, -y+1/2, z
SFAC NA O TC
UNIT 4 16 4
TEMP 23.000
SIZE 0.200 0.260 0.280
L.S. 8
BOND
FMAP 2
PLAN 20
SHEL 5 0.5
OMIT -2 70
OMIT     1   2   3
OMIT    -1   2   1
OMIT    -1   3   8
OMIT     0   4   6
OMIT     0   1   5
OMIT     2   2   2
OMIT     0   3   1
ACTA
WGHT    0.007100    0.084600
EXTI    0.136368
FVAR       0.91298
TC1   3    0.500000    0.750000    0.125000    10.25000    0.01355    0.01355 =
         0.01591    0.00000    0.00000    0.00000
NA1   1    0.000000    0.250000    0.125000    10.25000    0.02609    0.02609 =
         0.02422    0.00000    0.00000    0.00000
O1    2    0.734937    0.624423    0.043424    11.00000    0.02003    0.02251 =
         0.02420   -0.00301    0.00503    0.00045
HKLF 4
REM  NaTcO4_RT_0m in I4(1)/a
REM R1 =  0.0081 for     350 Fo > 4sig(Fo)  and  0.0087 for all     365 data
REM     15 parameters refined using      0 restraints
END
WGHT      0.0071      0.0846
REM Highest difference peak  0.231,  deepest hole -0.328,  1-sigma level  0.052
Q1    1   0.5965  0.6669  0.1298  11.00000  0.05    0.23
Q2    1   0.7815  0.3797  0.0373  11.00000  0.05    0.22
Q3    1   0.6531  0.7379  0.0451  11.00000  0.05    0.19
Q4    1   0.8292  0.4680 -0.0154  11.00000  0.05    0.17
Q5    1   0.0716  0.2584  0.1300  11.00000  0.05    0.16
Q6    1   0.7319  0.4970 -0.0309  11.00000  0.05    0.14
Q7    1   0.6391  0.5468  0.1138  11.00000  0.05    0.12
Q8    1   0.6422  0.4002 -0.0179  11.00000  0.05    0.11
Q9    1   0.6974  0.5692  0.0479  11.00000  0.05    0.11
Q10   1  -0.1201  0.4160  0.1266  11.00000  0.05    0.10
Q11   1   0.7182  0.6422  0.0021  11.00000  0.05    0.10
Q12   1   0.6149  0.6294  0.0831  11.00000  0.05    0.10
Q13   1   0.5000  0.7500  0.0782  10.50000  0.05    0.10
Q14   1   0.8457  0.5945 -0.0559  11.00000  0.05    0.09
Q15   1   0.8582  0.6083 -0.0200  11.00000  0.05    0.09
Q16   1   0.5471  0.7310 -0.0675  11.00000  0.05    0.08
Q17   1   0.5925  0.3865  0.0631  11.00000  0.05    0.07
Q18   1   0.8025  0.7617 -0.0226  11.00000  0.05    0.07
Q19   1   0.5631  0.5620 -0.0488  11.00000  0.05    0.07
Q20   1   1.0000  0.7500  0.1110  10.50000  0.05    0.07
;
loop_
_symmetry_equiv_pos_as_xyz
'x, y, z'
'-y+1/4, x+3/4, z+3/4'
'y+1/4, -x+1/4, z+1/4'
'-x, -y+1/2, z'
'x+1/2, y+1/2, z+1/2'
'-y+3/4, x+5/4, z+5/4'
'y+3/4, -x+3/4, z+3/4'
'-x+1/2, -y+1, z+1/2'
'-x, -y, -z'
'y-1/4, -x-3/4, -z-3/4'
'-y-1/4, x-1/4, -z-1/4'
'x, y-1/2, -z'
'-x+1/2, -y+1/2, -z+1/2'
'y+1/4, -x-1/4, -z-1/4'
'-y+1/4, x+1/4, -z+1/4'
'x+1/2, y, -z+1/2'
loop_
_atom_site_type_symbol
_atom_site_label
_atom_site_fract_x
_atom_site_fract_y
_atom_site_fract_z
_atom_site_U_iso_or_equiv
_atom_site_adp_type
_atom_site_calc_flag
_atom_site_occupancy
Tc Tc1 0.5000 0.7500 0.1250 0.01434(6) Uani d 1
Na Na1 0.0000 0.2500 0.1250 0.02546(16) Uani d 1
O O1 0.73494(12) 0.62442(11) 0.04342(6) 0.02225(12) Uani d 1
loop_
_atom_site_aniso_label
_atom_site_aniso_U_11
_atom_site_aniso_U_22
_atom_site_aniso_U_33
_atom_site_aniso_U_12
_atom_site_aniso_U_13
_atom_site_aniso_U_23
Tc1 0.01355(6) 0.01355(6) 0.01591(7) 0.000 0.000 0.000
Na1 0.0261(2) 0.0261(2) 0.0242(4) 0.000 0.000 0.000
O1 0.0200(2) 0.0225(2) 0.0242(3) 0.0005(2) 0.0050(2) -0.0030(2)
loop_
_atom_type_symbol
_atom_type_description
_atom_type_scat_dispersion_real
_atom_type_scat_dispersion_imag
_atom_type_scat_source
Na Na 0.0362 0.0249 'International Tables Vol C Tables 4.2.6.8 and 6.1.1.4'
O O 0.0106 0.0060 'International Tables Vol C Tables 4.2.6.8 and 6.1.1.4'
Tc Tc -1.4390 0.7593 'International Tables Vol C Tables 4.2.6.8 and 6.1.1.4'
loop_
_geom_angle_atom_site_label_1
_geom_angle_atom_site_label_2
_geom_angle_atom_site_label_3
_geom_angle_site_symmetry_1
_geom_angle_site_symmetry_3
_geom_angle
_geom_angle_publ_flag
O1 Tc1 O1 15_655 . 108.45(2) ?
O1 Tc1 O1 15_655 4_665 108.45(2) ?
O1 Tc1 O1 . 4_665 111.53(5) y
O1 Tc1 O1 15_655 10_576 111.53(5) ?
O1 Tc1 O1 . 10_576 108.45(2) y
O1 Tc1 O1 4_665 10_576 108.45(2) ?
O1 Na1 O1 12_455 3_465 128.283(18) ?
O1 Na1 O1 12_455 6_534 128.283(18) ?
O1 Na1 O1 3_465 6_534 76.17(3) ?
O1 Na1 O1 12_455 9_665 76.17(3) ?
O1 Na1 O1 3_465 9_665 128.283(18) ?
O1 Na1 O1 6_534 9_665 128.283(18) ?
O1 Na1 O1 12_455 10_576 148.68(2) ?
O1 Na1 O1 3_465 10_576 67.149(15) ?
O1 Na1 O1 6_534 10_576 79.04(2) ?
O1 Na1 O1 9_665 10_576 73.993(11) ?
O1 Na1 O1 12_455 15_545 73.993(11) ?
O1 Na1 O1 3_465 15_545 79.04(2) ?
O1 Na1 O1 6_534 15_545 67.149(15) ?
O1 Na1 O1 9_665 15_545 148.68(2) ?
O1 Na1 O1 10_576 15_545 136.88(3) ?
O1 Na1 O1 12_455 4_655 79.04(2) ?
O1 Na1 O1 3_465 4_655 148.68(2) ?
O1 Na1 O1 6_534 4_655 73.993(11) ?
O1 Na1 O1 9_665 4_655 67.149(15) ?
O1 Na1 O1 10_576 4_655 97.762(10) ?
O1 Na1 O1 15_545 4_655 97.762(10) ?
O1 Na1 O1 12_455 1_455 67.149(15) ?
O1 Na1 O1 3_465 1_455 73.993(11) ?
O1 Na1 O1 6_534 1_455 148.68(2) ?
O1 Na1 O1 9_665 1_455 79.04(2) ?
O1 Na1 O1 10_576 1_455 97.762(10) ?
O1 Na1 O1 15_545 1_455 97.762(10) ?
O1 Na1 O1 4_655 1_455 136.88(3) ?
O1 Na1 Na1 12_455 9 40.383(14) ?
O1 Na1 Na1 3_465 9 163.325(14) ?
O1 Na1 Na1 6_534 9 102.250(15) ?
O1 Na1 Na1 9_665 9 65.896(14) ?
O1 Na1 Na1 10_576 9 129.245(14) ?
O1 Na1 Na1 15_545 9 85.049(14) ?
O1 Na1 Na1 4_655 9 38.652(13) ?
O1 Na1 Na1 1_455 9 103.569(14) ?
O1 Na1 Na1 12_455 13 163.325(14) ?
O1 Na1 Na1 3_465 13 65.896(14) ?
O1 Na1 Na1 6_534 13 40.383(14) ?
O1 Na1 Na1 9_665 13 102.250(15) ?
O1 Na1 Na1 10_576 13 38.652(13) ?
O1 Na1 Na1 15_545 13 103.569(14) ?
O1 Na1 Na1 4_655 13 85.049(14) ?
O1 Na1 Na1 1_455 13 129.245(14) ?
Na1 Na1 Na1 9 13 123.5390(10) ?
O1 Na1 Na1 12_455 9_565 65.896(14) ?
O1 Na1 Na1 3_465 9_565 102.250(15) ?
O1 Na1 Na1 6_534 9_565 163.325(14) ?
O1 Na1 Na1 9_665 9_565 40.383(14) ?
O1 Na1 Na1 10_576 9_565 85.049(14) ?
O1 Na1 Na1 15_545 9_565 129.245(14) ?
O1 Na1 Na1 4_655 9_565 103.569(14) ?
O1 Na1 Na1 1_455 9_565 38.652(13) ?
Na1 Na1 Na1 9 9_565 83.973(2) ?
Na1 Na1 Na1 13 9_565 123.5390(10) ?
O1 Na1 Na1 12_455 13_455 102.250(15) ?
O1 Na1 Na1 3_465 13_455 40.383(14) ?
O1 Na1 Na1 6_534 13_455 65.896(14) ?
O1 Na1 Na1 9_665 13_455 163.325(14) ?
O1 Na1 Na1 10_576 13_455 103.569(14) ?
O1 Na1 Na1 15_545 13_455 38.652(13) ?
O1 Na1 Na1 4_655 13_455 129.245(14) ?
O1 Na1 Na1 1_455 13_455 85.049(14) ?
Na1 Na1 Na1 9 13_455 123.5390(10) ?
Na1 Na1 Na1 13 13_455 83.973(2) ?
Na1 Na1 Na1 9_565 13_455 123.5390(10) ?
Tc1 O1 Na1 . 9_665 138.27(3) ?
Tc1 O1 Na1 . 1_655 118.74(3) ?
Na1 O1 Na1 9_665 1_655 100.96(2) ?
loop_
_geom_bond_atom_site_label_1
_geom_bond_atom_site_label_2
_geom_bond_site_symmetry_2
_geom_bond_distance
_geom_bond_publ_flag
Tc1 O1 15_655 1.7183(6) ?
Tc1 O1 . 1.7183(6) y
Tc1 O1 4_665 1.7183(6) ?
Tc1 O1 10_576 1.7183(6) ?
Na1 O1 12_455 2.5357(6) ?
Na1 O1 3_465 2.5357(6) ?
Na1 O1 6_534 2.5357(6) ?
Na1 O1 9_665 2.5357(6) ?
Na1 O1 10_576 2.6303(6) ?
Na1 O1 15_545 2.6303(6) ?
Na1 O1 4_655 2.6303(6) ?
Na1 O1 1_455 2.6303(6) ?
O1 Na1 9_665 2.5357(6) y
O1 Na1 1_655 2.6304(6) y

_cod_database_fobs_code 2242257
