#------------------------------------------------------------------------------
#$Date: 2016-02-14 16:26:36 +0200 (Sun, 14 Feb 2016) $
#$Revision: 176435 $
#$URL: svn://www.crystallography.net/cod/cif/2/31/00/2310091.cif $
#------------------------------------------------------------------------------
#
# This file is available in the Crystallography Open Database (COD),
# http://www.crystallography.net/. The original data for this entry
# were provided by IUCr Journals, http://journals.iucr.org/.
#
# The file may be used within the scientific community so long as
# proper attribution is given to the journal article from which the
# data were obtained.
#
data_2310091
loop_
_publ_author_name
'Perloff, A.'
'Block, S.'
'Mighell, A.D.'
_publ_section_title
;
 The crystal structure of the high temperature form of barium borate, Ba O
 (B2 O3)
;
_journal_name_full               'Acta Crystallographica (1,1948-23,1967)'
_journal_page_first              819
_journal_page_last               823
_journal_paper_doi               10.1107/S0365110X66001920
_journal_volume                  20
_journal_year                    1966
_chemical_formula_sum            'B2 Ba O4'
_chemical_name_systematic        '(Ba O) (B2 O3)'
_space_group_IT_number           167
_symmetry_space_group_name_Hall  '-R 3 2"c'
_symmetry_space_group_name_H-M   'R -3 c :H'
_cell_angle_alpha                90
_cell_angle_beta                 90
_cell_angle_gamma                120
_cell_formula_units_Z            18
_cell_length_a                   7.235
_cell_length_b                   7.235
_cell_length_c                   39.192
_cell_volume                     1776.663
_citation_journal_id_ASTM        ACCRA9
_cod_data_source_file            boron_7.cif
_cod_data_source_block           B2Ba1O4
_cod_original_formula_sum        'B2 Ba1 O4'
_cod_database_code               2310091
loop_
_symmetry_equiv_pos_as_xyz
x,y,z
-y,x-y,z
-x+y,-x,z
y,x,-z+1/2
-x,-x+y,-z+1/2
x-y,-y,-z+1/2
-x,-y,-z
y,-x+y,-z
x-y,x,-z
-y,-x,z-1/2
x,x-y,z-1/2
-x+y,y,z-1/2
x+2/3,y+1/3,z+1/3
-y+2/3,x-y+1/3,z+1/3
-x+y+2/3,-x+1/3,z+1/3
y+2/3,x+1/3,-z+5/6
-x+2/3,-x+y+1/3,-z+5/6
x-y+2/3,-y+1/3,-z+5/6
-x+2/3,-y+1/3,-z+1/3
y+2/3,-x+y+1/3,-z+1/3
x-y+2/3,x+1/3,-z+1/3
-y+2/3,-x+1/3,z-1/6
x+2/3,x-y+1/3,z-1/6
-x+y+2/3,y+1/3,z-1/6
x+1/3,y+2/3,z+2/3
-y+1/3,x-y+2/3,z+2/3
-x+y+1/3,-x+2/3,z+2/3
y+1/3,x+2/3,-z+7/6
-x+1/3,-x+y+2/3,-z+7/6
x-y+1/3,-y+2/3,-z+7/6
-x+1/3,-y+2/3,-z+2/3
y+1/3,-x+y+2/3,-z+2/3
x-y+1/3,x+2/3,-z+2/3
-y+1/3,-x+2/3,z+1/6
x+1/3,x-y+2/3,z+1/6
-x+y+1/3,y+2/3,z+1/6
loop_
_atom_site_label
_atom_site_type_symbol
_atom_site_fract_x
_atom_site_fract_y
_atom_site_fract_z
_atom_site_occupancy
_atom_site_U_iso_or_equiv
B1 B+3 0.967 0.178 0.03796 1 0.0
O2 O-2 0.405 0.059 0.0365 1 0.0
Ba1 Ba+2 0 0 0.34983 1 0.0
Ba2 Ba+2 0 0 0.25 1 0.0
O1 O-2 0.174 0.205 0.04 1 0.0
