#------------------------------------------------------------------------------
#$Date: 2015-07-13 04:00:56 +0300 (Mon, 13 Jul 2015) $
#$Revision: 149083 $
#$URL: svn://www.crystallography.net/cod/cif/2/31/04/2310400.cif $
#------------------------------------------------------------------------------
#
# This file is available in the Crystallography Open Database (COD),
# http://www.crystallography.net/. The original data for this entry
# were provided by IUCr Journals, http://journals.iucr.org/.
#
# The file may be used within the scientific community so long as
# proper attribution is given to the journal article from which the
# data were obtained.
#
data_2310400
loop_
_publ_author_name
'Harris, L.A.'
'Yakel, H.L.jr.'
_publ_section_title
;
 The crystal structure of calcium Bbryllate, Ca12 Be17 O29
;
_journal_name_full               'Acta Crystallographica (1,1948-23,1967)'
_journal_page_first              295
_journal_page_last               301
_journal_volume                  20
_journal_year                    1966
_chemical_formula_sum            'Be17 Ca12 O29'
_chemical_name_systematic        'Ca12 Be17 O29'
_space_group_IT_number           216
_symmetry_space_group_name_Hall  'F -4 2 3'
_symmetry_space_group_name_H-M   'F -4 3 m'
_cell_angle_alpha                90
_cell_angle_beta                 90
_cell_angle_gamma                90
_cell_formula_units_Z            4
_cell_length_a                   14.023
_cell_length_b                   14.023
_cell_length_c                   14.023
_cell_volume                     2757.546
_citation_journal_id_ASTM        ACCRA9
_cod_data_source_file            Harris_ACCRA9_1966_1097.cif
_cod_data_source_block           Be17Ca12O29
_cod_database_code               2310400
loop_
_symmetry_equiv_pos_as_xyz
x,y,z
y,-x,-z
-x,-y,z
-y,x,-z
x,-y,-z
-y,-x,z
-x,y,-z
y,x,z
z,x,y
x,-z,-y
-z,-x,y
-x,z,-y
z,-x,-y
-x,-z,y
-z,x,-y
x,z,y
y,z,x
y,-z,-x
-z,-y,x
-y,z,-x
z,y,x
-y,-z,x
-z,y,-x
z,-y,-x
x,y+1/2,z+1/2
y,-x+1/2,-z+1/2
-x,-y+1/2,z+1/2
-y,x+1/2,-z+1/2
x,-y+1/2,-z+1/2
-y,-x+1/2,z+1/2
-x,y+1/2,-z+1/2
y,x+1/2,z+1/2
z,x+1/2,y+1/2
x,-z+1/2,-y+1/2
-z,-x+1/2,y+1/2
-x,z+1/2,-y+1/2
z,-x+1/2,-y+1/2
-x,-z+1/2,y+1/2
-z,x+1/2,-y+1/2
x,z+1/2,y+1/2
y,z+1/2,x+1/2
y,-z+1/2,-x+1/2
-z,-y+1/2,x+1/2
-y,z+1/2,-x+1/2
z,y+1/2,x+1/2
-y,-z+1/2,x+1/2
-z,y+1/2,-x+1/2
z,-y+1/2,-x+1/2
x+1/2,y,z+1/2
y+1/2,-x,-z+1/2
-x+1/2,-y,z+1/2
-y+1/2,x,-z+1/2
x+1/2,-y,-z+1/2
-y+1/2,-x,z+1/2
-x+1/2,y,-z+1/2
y+1/2,x,z+1/2
z+1/2,x,y+1/2
x+1/2,-z,-y+1/2
-z+1/2,-x,y+1/2
-x+1/2,z,-y+1/2
z+1/2,-x,-y+1/2
-x+1/2,-z,y+1/2
-z+1/2,x,-y+1/2
x+1/2,z,y+1/2
y+1/2,z,x+1/2
y+1/2,-z,-x+1/2
-z+1/2,-y,x+1/2
-y+1/2,z,-x+1/2
z+1/2,y,x+1/2
-y+1/2,-z,x+1/2
-z+1/2,y,-x+1/2
z+1/2,-y,-x+1/2
x+1/2,y+1/2,z
y+1/2,-x+1/2,-z
-x+1/2,-y+1/2,z
-y+1/2,x+1/2,-z
x+1/2,-y+1/2,-z
-y+1/2,-x+1/2,z
-x+1/2,y+1/2,-z
y+1/2,x+1/2,z
z+1/2,x+1/2,y
x+1/2,-z+1/2,-y
-z+1/2,-x+1/2,y
-x+1/2,z+1/2,-y
z+1/2,-x+1/2,-y
-x+1/2,-z+1/2,y
-z+1/2,x+1/2,-y
x+1/2,z+1/2,y
y+1/2,z+1/2,x
y+1/2,-z+1/2,-x
-z+1/2,-y+1/2,x
-y+1/2,z+1/2,-x
z+1/2,y+1/2,x
-y+1/2,-z+1/2,x
-z+1/2,y+1/2,-x
z+1/2,-y+1/2,-x
loop_
_atom_site_label
_atom_site_type_symbol
_atom_site_fract_x
_atom_site_fract_y
_atom_site_fract_z
_atom_site_occupancy
_atom_site_U_iso_or_equiv
O2 O-2 0.8857 0.8857 0.7482 1 0.0
Be4 Be+2 0.1632 0.1632 0.1632 1 0.0
Ca1 Ca+2 -0.004 0.25 0.25 1 0.0
O1 O-2 0.1121 0.1121 0.2475 1 0.0
Be3 Be+2 0.3261 0.3261 0.3261 1 0.0
Be1 Be+2 0.5 0.5 0.5 1 0.0
Ca2 Ca+2 0.2932 0 0 1 0.0
Be5 Be+2 0.8435 0.8435 0.8435 1 0.0
O4 O-2 0.5686 0.5686 0.5686 1 0.0
O3 O-2 0.25 0.25 0.25 1 0.0
Be2 Be+2 0.6362 0.6362 0.6362 1 0.0
