#------------------------------------------------------------------------------
#$Date: 2016-02-14 16:26:36 +0200 (Sun, 14 Feb 2016) $
#$Revision: 176435 $
#$URL: svn://www.crystallography.net/cod/cif/2/31/00/2310021.cif $
#------------------------------------------------------------------------------
#
# This file is available in the Crystallography Open Database (COD),
# http://www.crystallography.net/. The original data for this entry
# were provided by IUCr Journals, http://journals.iucr.org/.
#
# The file may be used within the scientific community so long as
# proper attribution is given to the journal article from which the
# data were obtained.
#
data_2310021
loop_
_publ_author_name
'Fankuchen, I.'
'Banks, E.'
'Brous, J.'
_publ_section_title
;
 Rare earth titanates with a perovskite structure
;
_journal_name_full               'Acta Crystallographica (1,1948-23,1967)'
_journal_page_first              67
_journal_page_last               70
_journal_paper_doi               10.1107/S0365110X53000156
_journal_volume                  6
_journal_year                    1953
_chemical_formula_sum            'Ag0.327 La0.673 O3 Ti'
_chemical_name_systematic        'Lanthanum silver titanate (0.67/0.33/1)'
_space_group_IT_number           221
_symmetry_space_group_name_Hall  '-P 4 2 3'
_symmetry_space_group_name_H-M   'P m -3 m'
_cell_angle_alpha                90
_cell_angle_beta                 90
_cell_angle_gamma                90
_cell_formula_units_Z            1
_cell_length_a                   3.882
_cell_length_b                   3.882
_cell_length_c                   3.882
_cell_volume                     58.501
_citation_journal_id_ASTM        ACCRA9
_cod_data_source_file            silver0-1_58.cif
_cod_data_source_block           Ag0.327La0.673O3Ti1
_cod_original_cell_volume        58.50144
_cod_original_formula_sum        'Ag0.327 La0.673 O3 Ti1'
_cod_database_code               2310021
loop_
_symmetry_equiv_pos_as_xyz
x,y,z
-y,x,z
-x,-y,z
y,-x,z
x,-y,-z
y,x,-z
-x,y,-z
-y,-x,-z
z,x,y
-x,z,y
-z,-x,y
x,-z,y
z,-x,-y
x,z,-y
-z,x,-y
-x,-z,-y
y,z,x
y,-z,-x
z,y,-x
-y,z,-x
-z,-y,-x
-y,-z,x
z,-y,x
-z,y,x
-x,-y,-z
y,-x,-z
x,y,-z
-y,x,-z
-x,y,z
-y,-x,z
x,-y,z
y,x,z
-z,-x,-y
x,-z,-y
z,x,-y
-x,z,-y
-z,x,y
-x,-z,y
z,-x,y
x,z,y
-y,-z,-x
-y,z,x
-z,-y,x
y,-z,x
z,y,x
y,z,-x
-z,y,-x
z,-y,-x
loop_
_atom_site_label
_atom_site_type_symbol
_atom_site_fract_x
_atom_site_fract_y
_atom_site_fract_z
_atom_site_occupancy
O1 O-2 0.5 0.5 0 1
Ag1 Ag+1 0 0 0 0.327
La1 La+3 0 0 0 0.673
Ti1 Ti+3 0.5 0.5 0.5 1
