#------------------------------------------------------------------------------
#$Date: 2019-12-26 20:55:13 +0200 (Thu, 26 Dec 2019) $
#$Revision: 246091 $
#$URL: file:///home/coder/svn-repositories/cod/cif/2/31/17/2311706.cif $
#------------------------------------------------------------------------------
#
# This file is available in the Crystallography Open Database (COD),
# http://www.crystallography.net/. The original data for this entry
# were provided by IUCr Journals, http://journals.iucr.org/.
#
# The file may be used within the scientific community so long as
# proper attribution is given to the journal article from which the
# data were obtained.
#
data_2311706
loop_
_publ_author_name
'Huband, S.'
'Keeble, D. S.'
'Zhang, N.'
'Glazer, A. M.'
'Bartasyte, A.'
'Thomas, P. A.'
_publ_section_title
;
 Crystallographic and optical study of
 LiNb<sub>1&#x2005;-&#x2005;x</sub>Ta<sub>x</sub>O<sub>3</sub>.
;
_journal_issue                   'Pt 3'
_journal_name_full
'Acta crystallographica Section B, Structural science, crystal engineering and materials'
_journal_page_first              498
_journal_page_last               506
_journal_paper_doi               10.1107/S2052520617004711
_journal_volume                  73
_journal_year                    2017
_chemical_formula_moiety         'Li Nb0.47 O3 Ta0.53'
_chemical_formula_sum            'Li Nb0.47 O3 Ta0.53'
_chemical_formula_weight         194.51
_chemical_name_common            'lithium niobate tantalate'
_chemical_name_systematic        'lithium niobate tantalate'
_space_group_crystal_system      trigonal
_space_group_IT_number           161
_space_group_name_Hall           'R 3 -2"c'
_space_group_name_H-M_alt        'R 3 c :H'
_atom_sites_solution_primary     other
_atom_sites_solution_secondary   other
_audit_creation_method
;
Olex2 1.2
(compiled 2016.09.09 svn.r3337 for OlexSys, GUI svn.r5227)
dddd
Burla, M.C., Caliandro, R., Camalli, M., Carrozzini, B., Cascarano, G.L.,
 De Caro, L., Giacovazzo, C., Polidori, G., Siliqi, D., Spagna, R.
 (2007). J. Appl. Cryst. 40, 609-613.
Dolomanov, O.V., Bourhis, L.J., Gildea, R.J, Howard, J.A.K. & Puschmann, H.
 (2009), J. Appl. Cryst. 42, 339-341.
Sheldrick, G.M. (2015). Acta Cryst. C71, 3-8.
;
_cell_angle_alpha                90
_cell_angle_beta                 90
_cell_angle_gamma                120
_cell_formula_units_Z            6
_cell_length_a                   5.1470(10)
_cell_length_b                   5.1470(10)
_cell_length_c                   13.834(5)
_cell_measurement_reflns_used    1391
_cell_measurement_temperature    293(2)
_cell_measurement_theta_max      32.0980
_cell_measurement_theta_min      5.4320
_cell_volume                     317.39(14)
_computing_cell_refinement       'CrysAlisPro 1.171.38.43d (Rigaku OD, 2015)'
_computing_data_collection       'CrysAlisPro 1.171.38.43d (Rigaku OD, 2015)'
_computing_data_reduction        'CrysAlisPro 1.171.38.43d (Rigaku OD, 2015)'
_computing_molecular_graphics    'Olex2 (Dolomanov et al., 2009)'
_computing_publication_material  'Olex2 (Dolomanov et al., 2009)'
_computing_structure_refinement  'ShelXL (Sheldrick, 2015)'
_computing_structure_solution    'SIR2004 (Burla et al., 2007)'
_diffrn_ambient_temperature      293(2)
_diffrn_detector_area_resol_mean 10.2833
_diffrn_measured_fraction_theta_full 1.000
_diffrn_measured_fraction_theta_max 0.978
_diffrn_measurement_device       'four-circle diffractometer'
_diffrn_measurement_device_type  'Xcalibur, Ruby, Gemini'
_diffrn_measurement_method       '\w scans'
_diffrn_radiation_monochromator  graphite
_diffrn_radiation_type           MoK\a
_diffrn_radiation_wavelength     0.71073
_diffrn_reflns_av_R_equivalents  0.0332
_diffrn_reflns_limit_h_max       7
_diffrn_reflns_limit_h_min       -7
_diffrn_reflns_limit_k_max       7
_diffrn_reflns_limit_k_min       -7
_diffrn_reflns_limit_l_max       20
_diffrn_reflns_limit_l_min       -20
_diffrn_reflns_number            1800
_diffrn_reflns_theta_full        25.242
_diffrn_reflns_theta_max         32.587
_diffrn_reflns_theta_min         5.442
_exptl_absorpt_coefficient_mu    29.867
_exptl_absorpt_correction_T_max  0.183
_exptl_absorpt_correction_T_min  0.069
_exptl_absorpt_correction_type   analytical
_exptl_absorpt_process_details
;CrysAlisPro 1.171.38.43d (Rigaku Oxford Diffraction, 2015)
Analytical numeric absorption correction using a multifaceted crystal model
based on expressions derived by R.C. Clark & J.S. Reid. (Clark, R. C. &
Reid, J. S. (1995). Acta Cryst. A51, 887-897) Empirical absorption
correction using spherical harmonics, implemented in
SCALE3 ABSPACK scaling algorithm
;
_exptl_crystal_colour            'clear green'
_exptl_crystal_density_diffrn    6.106
_exptl_crystal_description       cube
_exptl_crystal_F_000             510
_exptl_crystal_size_max          0.146
_exptl_crystal_size_mid          0.119
_exptl_crystal_size_min          0.082
_refine_diff_density_max         1.613
_refine_diff_density_min         -0.951
_refine_ls_abs_structure_details
;
 Flack x determined using 116 quotients [(I+)-(I-)]/[(I+)+(I-)]
 (Parsons, Flack and Wagner, Acta Cryst. B69 (2013) 249-259).
;
_refine_ls_abs_structure_Flack   -0.01(6)
_refine_ls_extinction_coef       0.150(12)
_refine_ls_extinction_expression Fc^*^=kFc[1+0.001xFc^2^\l^3^/sin(2\q)]^-1/4^
_refine_ls_extinction_method     'SHELXL-2014/7 (Sheldrick 2014'
_refine_ls_goodness_of_fit_ref   1.158
_refine_ls_hydrogen_treatment    undef
_refine_ls_matrix_type           full
_refine_ls_number_parameters     17
_refine_ls_number_reflns         255
_refine_ls_number_restraints     1
_refine_ls_restrained_S_all      1.155
_refine_ls_R_factor_all          0.0235
_refine_ls_R_factor_gt           0.0235
_refine_ls_shift/su_max          0.000
_refine_ls_shift/su_mean         0.000
_refine_ls_structure_factor_coef Fsqd
_refine_ls_weighting_details
'w=1/[\s^2^(Fo^2^)+(0.0452P)^2^] where P=(Fo^2^+2Fc^2^)/3'
_refine_ls_weighting_scheme      calc
_refine_ls_wR_factor_gt          0.0618
_refine_ls_wR_factor_ref         0.0618
_reflns_number_gt                255
_reflns_number_total             255
_reflns_threshold_expression     'I > 2\s(I)'
_cod_data_source_file            bp5094sup1.cif
_cod_data_source_block           LNT53
_cod_depositor_comments
;
The following automatic conversions were performed:

data item '_atom_sites_solution_primary' value 'Other' was changed to
'other' in accordance with the
/home/saulius/struct/COD-crude-data/automatic-downloads/DataCite-retrospective/IUCr/depositions/lib/dictionaries/cif_core.dic
dictionary named 'cif_core.dic' version 2.4.2 last updated on
2011-04-26.

data item '_atom_sites_solution_secondary' value 'Other' was changed
to 'other' in accordance with the
/home/saulius/struct/COD-crude-data/automatic-downloads/DataCite-retrospective/IUCr/depositions/lib/dictionaries/cif_core.dic
dictionary named 'cif_core.dic' version 2.4.2 last updated on
2011-04-26.

Automatic conversion script
Id: cif_fix_values 7556 2019-12-06 15:28:31Z antanas 
;
_cod_original_cell_volume        317.39(17)
_cod_original_sg_symbol_H-M      'R 3 c'
_cod_database_code               2311706
_shelx_space_group_comment
;
The symmetry employed for this shelxl refinement is uniquely defined
by the following loop, which should always be used as a source of
symmetry information in preference to the above space-group names.
They are only intended as comments.
;
_shelx_hkl_file
;
   0   0 -18 410350. 13424.7   4
   0   0 -18 365110. 12547.2   2
   0   0 -15 41.1449 226.820   4
   0   0 -12 534829. 15512.6   4
   0   0  -9 177.030 150.933   3
   0   0  -9-104.745 187.519   4
   0   0  -6 485265. 12131.8   3
   0   0  -6 456861. 12629.9   4
   0   0  -3 222.627 117.251   4
   0   0  -3 135.834 79.0419   3
   0   0   3 92.8139 73.8774   3
   0   0   6 441338. 11449.7   3
   0   0   9 151.384 196.655   3
   0   0  12 641766. 17315.1   3
   0   0  15 242.501 331.645   8
   0   0  15 144.291 363.979   3
   0   0  18 361761. 12189.5   8
   0   1 -19-133.311 193.696   4
   1  -1 -19-454.661 316.515   4
  -1   0 -19-17.7843 118.142   4
   1  -1 -19-194.002 262.346   2
   0   1 -19-55.5957 280.931   2
   0   1 -16 336400. 11573.6   4
   1  -1 -16 329817. 11141.9   4
   1  -1 -16 322879. 10700.6   2
  -1   0 -16 339064. 11597.6   4
   0   1 -13-435.120 333.085   4
   1  -1 -13 209.779 252.808   2
  -1   0 -13 123.713 299.313   4
   1  -1 -13 116.209 247.423   4
   1  -1 -10 604766. 16477.5   4
  -1   0 -10 596962. 17147.9   4
   1  -1 -10 608495. 16492.9   2
   0   1 -10 615007. 16833.7   4
   0   1  -7 30.6052 137.718   4
   1  -1  -7 51.0126 142.846   4
   1  -1  -7 272.525 199.593   2
   0   1  -7 254.112 152.275   3
  -1   0  -7 201.630 274.443   4
   1  -1  -7 313.688 167.441   3
   1  -1  -4 711321. 17151.3   4
  -1   0  -4 633604. 17734.2   4
   1  -1  -4 785706. 17609.2   1
   0   1  -4 727431. 17444.2   3
   1  -1  -4 818351. 17397.5   2
  -1   0  -4 710695. 17688.3   8
   0   1  -4 675810. 17289.8   4
  -1   0  -1 64.9157 100.187   8
   1  -1  -1 191.044 93.6161   2
  -1   0  -1 11.2685 45.2627   5
  -1   0  -1 10.4758 105.074   3
   0   1  -1 14.8858 61.0890   1
   1  -1  -1 73.2640 98.1819   1
  -1   0   2 699196. 17576.3   8
   0   1   2 684366. 17536.2   4
  -1   0   2 702671. 17821.2   3
   0   1   2 724408. 17827.5   5
   0   1   5 44.3121 92.2246   3
   0   1   5 1.13197 65.8906   6
   0   1   5 57.9850 99.0082   4
  -1   0   5 31.9371 175.337   3
   1  -1   5 305.945 142.021   8
   1  -1   5 273.671 144.771   6
   1  -1   8 700050. 17119.3   6
   1  -1   8 708500. 16915.6   3
  -1   0   8 673685. 17914.1   3
   0   1   8 599403. 16429.8   9
   1  -1   8 733612. 17856.2   8
   0   1   8 644411. 17213.8   3
   0   1  11 198.993 188.687   3
   1  -1  11 0.75408 188.949   6
  -1   0  11 410.493 349.844   3
   1  -1  11-43.3739 225.149   8
   0   1  11 149.985 72.2188   9
   1  -1  14 517101. 12920.1   3
   0   1  14 443132. 14583.6   8
   1  -1  14 510587. 12921.4   6
   1  -1  14 456676. 14105.8   8
   0   1  14 458439. 13238.2   3
  -1   0  14 457124. 14375.2   3
  -1   0  17 520.572 460.411   3
   1  -1  17-536.028 407.055   8
   0   1  17 156.776 407.438   8
   0   1  20 248824. 9607.67   8
   1  -1  20 243622. 9115.63   8
  -1   0  20 233959. 9373.12   8
   0  -1 -20 249080. 9417.36   4
   1   0 -20 223995. 9056.06   2
   1   0 -17-33.7923 263.482   4
   1   0 -17-71.3705 208.530   2
   0  -1 -17 338.944 341.060   4
  -1   1 -17-337.374 404.756   4
  -1   1 -14 444236. 13885.5   4
   1   0 -14 433882. 13323.2   4
   1   0 -14 424040. 13331.5   2
   0  -1 -14 414378. 13141.6   4
   1   0 -11-255.157 267.229   2
  -1   1 -11 288.352 307.628   4
  -1   1 -11 79.5660 89.9440   3
   0  -1 -11 138.362 211.722   4
   1   0 -11 376.983 275.839   4
   1   0  -8 631678. 16942.5   4
  -1   1  -8 621030. 17331.3   4
  -1   1  -8 618994. 15884.9   3
   1   0  -8 637583. 17097.9   2
   0  -1  -8 614623. 16907.6   4
   1   0  -5-28.7636 73.0153   3
  -1   1  -5 77.1988 91.0837   3
   0  -1  -5 125.005 114.562   4
  -1   1  -5-140.472 158.137   4
  -1   1  -5 109.488 154.908   8
   1   0  -5 84.3673 154.464   2
   1   0  -2 740217. 16657.2   1
   1   0  -2 726291. 17356.7   2
  -1   1  -2 681446. 16968.7   8
  -1   1  -2 670532. 17495.5   4
  -1   1  -2 698947. 17370.4   6
   1   0  -2 745191. 17050.8   8
   0  -1  -2 641107. 17093.6   6
   0  -1  -2 690225. 17004.0   4
   0  -1   1 77.3034 63.7633   1
   1   0   1 109.529 83.0718   5
   1   0   1-5.50365 82.7701   2
   0  -1   1 284.000 201.808   6
  -1   1   1 174.622 82.1127   8
  -1   1   1 81.1155 61.7360   2
  -1   1   1 10.4947 43.3070   5
  -1   1   1 126.100 96.1773   9
  -1   1   1 138.006 108.073   3
   0  -1   4 751040. 17676.3   3
  -1   1   4 708092. 17646.1   3
   1   0   4 694505. 16921.2   9
   0  -1   7 74.5669 214.130   3
  -1   1   7 847.991 259.618   4
   1   0   7-11.2205 62.0843   3
   1   0   7 1167.58 174.105   9
  -1   1   7-226.437 172.883   3
   1   0  10 642271. 17798.2   8
   0  -1  10 637443. 17425.4   3
  -1   1  10 665834. 17476.9   3
   1   0  10 651129. 16289.5   3
   1   0  10 638189. 15850.3   6
   1   0  13-3.65555 254.750   8
   0  -1  13 128.455 278.401   8
  -1   1  13-65.9960 209.663   3
   1   0  13 31.6517 45.5322   6
   1   0  13 165.189 184.750   3
   0  -1  13 734.718 409.645   3
  -1   1  16 361161. 11195.3   3
   0  -1  16 375044. 10957.9   6
   0  -1  16 358991. 10988.9   3
   1   0  16 339515. 11581.6   8
   0  -1  16 343242. 11312.9   8
   1   0  19 189.603 343.715   8
   0  -1  19-593.711 462.135   8
  -1   1  19 880.471 683.849   8
   0   2 -17 196.877 350.743   2
  -2   0 -17 8.66309 186.573   4
   0   2 -17-190.681 391.060   4
   2  -2 -17-217.871 258.371   2
   2  -2 -17-208.401 326.452   1
  -2   0 -14 415536. 13249.9   4
   2  -2 -14 395373. 11939.7   2
   2  -2 -14 383151. 12256.6   1
   0   2 -11 45.8276 207.955   4
   2  -2 -11-48.6290 117.264   2
   2  -2 -11 48.5472 166.897   1
  -2   0 -11-136.563 214.216   4
   0   2  -8 664388. 18062.0   4
  -2   0  -8 640086. 18452.7   4
   2  -2  -8 690088. 18135.2   1
   2  -2  -8 687901. 17778.9   2
  -2   0  -5 66.6032 178.572   4
  -2   0  -5 200.424 139.247   5
   2  -2  -5-39.7046 163.176   1
   0   2  -5 54.5539 81.1409   1
  -2   0  -5 90.2795 68.2955   9
   2  -2  -5 79.3628 110.875   5
   0   2  -5 27.9641 112.476   4
   2  -2  -5 204.751 141.327   2
   0   2  -5 19.2486 217.804   3
   0   2  -2 539892. 13548.1   2
   2  -2  -2 588026. 13282.7   5
  -2   0  -2 512406. 13260.3   5
   0   2  -2 547912. 13270.4   1
   2  -2  -2 584100. 13710.9   1
  -2   0  -2 527539. 13856.0   8
  -2   0  -2 521398. 13419.5   3
   2  -2  -2 631510. 13765.5   2
  -2   0   1 29.8902 57.4292   1
  -2   0   1-4.06012 71.2076   8
   0   2   1 119.823 87.1428   5
   0   2   1 96.3715 60.3897   2
   2  -2   1 42.7594 112.811   1
   0   2   1 7.08782 123.036   8
   2  -2   1-47.0164 75.8070   8
  -2   0   1 212.997 194.577   3
   0   2   1-65.0572 154.624   6
   2  -2   1 105.658 134.201   7
   0   2   4 829316. 22134.1   6
   2  -2   4 902291. 22717.5   9
  -2   0   4 870378. 22724.9   3
  -2   0   4 876363. 22202.8   8
   0   2   4 857813. 22612.5   5
   2  -2   4 879669. 21955.3   8
   2  -2   7 14.8669 128.140   6
   0   2   7 305.048 166.880   6
   0   2   7-49.8163 116.630   4
   2  -2   7-60.6590 93.0948   8
  -2   0   7 249.534 335.252   3
   0   2  10 485238. 13886.5   3
   0   2  10 525164. 13364.8   6
  -2   0  10 516053. 15060.2   3
   2  -2  10 522394. 13727.0   6
   2  -2  10 520243. 14131.4   8
   2  -2  13-9.77882 140.514   6
   0   2  13-39.1342 104.108   3
   0   2  13 79.9952 320.382   8
   2  -2  13 56.6774 188.984   8
  -2   0  13-283.709 365.485   3
   2  -2  16 339457. 10807.5   8
  -2   0  16 324904. 11574.5   3
   0   2  16 308237. 11129.6   8
  -2   0  19-957.110 602.386   3
   1   1 -18 239043. 9747.46   2
   1  -2 -18 229505. 8749.14   1
   2  -1 -18 218970. 8476.82   2
  -1   2 -18 281255. 10375.7   4
  -2   1 -18 273752. 10201.2   4
   2  -1 -18 212853. 8106.80   1
   1  -2 -18 228514. 8623.74   4
  -1  -1 -18 260769. 9409.53   4
   1  -2 -15 14414.5 1364.43   2
   2  -1 -15 15341.0 1643.38   2
  -1  -1 -15 17473.0 1857.82   4
   1   1 -15 16515.9 1937.88   2
  -2   1 -15 18279.2 2078.82   4
   1  -2 -15 15248.4 1599.98   4
   2  -1 -15 15182.6 1545.37   1
  -1   2 -15 19971.6 2098.76   4
  -1   2 -12 463434. 13808.3   4
   1   1 -12 439167. 13655.2   2
   1  -2 -12 447908. 12505.9   2
   2  -1 -12 430698. 13193.5   2
   2  -1 -12 455144. 13027.4   1
  -1  -1 -12 442303. 13396.9   4
   1   1 -12 461506. 13596.0   4
   1  -2 -12 431186. 12825.0   4
  -2   1 -12 441920. 14008.7   4
   2  -1  -9 56875.7 2857.47   2
  -2   1  -9 59850.6 3292.15   4
  -1   2  -9 65768.2 2606.80   3
   1   1  -9 57011.1 3010.82   2
   1  -2  -9 53366.9 2356.26   2
  -1  -1  -9 57382.8 2927.02   4
   1  -2  -9 50263.4 2813.11   1
  -1   2  -9 57548.2 3009.09   4
   1  -2  -9 52883.6 2501.87   4
   2  -1  -9 49163.7 2482.51   1
  -1   2  -6 833502. 20390.1   3
  -1  -1  -6 724851. 20543.0   4
   1  -2  -6 776557. 19876.0   4
   1  -2  -6 817607. 20942.4   1
   1   1  -6 772950. 20763.1   2
  -2   1  -6 734757. 21028.1   4
  -2   1  -6 823594. 19633.4   6
  -1   2  -6 794957. 20556.6   4
  -1  -1  -6 787034. 20065.8   7
   2  -1  -6 838932. 20138.2   1
   2  -1  -6 835723. 20689.6   2
   1  -2  -6 860389. 19768.8   2
  -1  -1  -3 161965. 4919.96   2
   1   1  -3 167081. 5288.32   2
   1   1  -3 166399. 4670.83   8
  -1  -1  -3 165811. 4786.95   6
  -2   1  -3 189409. 5722.02   4
   1  -2  -3 169807. 4435.63   7
   2  -1  -3 160559. 5216.47   2
   1  -2  -3 176102. 5401.84   1
  -1  -1  -3 167381. 5269.79   5
  -1  -1  -3 172645. 5220.28   4
  -1   2  -3 204586. 5795.62   6
  -1  -1  -3 175500. 5481.72   8
  -2   1  -3 193218. 5375.60   8
   1  -2  -3 173854. 5253.61   9
  -2   1  -3 171018. 4637.07   3
  -1   2  -3 179378. 5053.00   4
  -1   2  -3 184043. 4606.30   8
  -2   1  -3 189232. 5460.33   9
  -1   2  -3 177161. 5068.23   1
   2  -1  -3 168412. 4829.08   1
  -1  -1   0 559687. 14599.1   2
   1   1   0 528307. 14311.9   8
  -2   1   0 564800. 14621.2   8
  -2   1   0 586168. 14880.7   9
   1   1   0 542467. 14395.1   5
   1  -2   0 602880. 15167.2   6
   1  -2   0 593052. 14535.5   1
  -1  -1   0 574649. 14174.3   1
  -1   2   0 515894. 14272.1   7
  -2   1   0 573889. 14406.9   1
   1   1   0 549871. 14418.7   2
  -2   1   0 579277. 14568.8   3
  -1   2   0 570798. 14464.8   5
  -1  -1   0 541313. 14641.0   3
   2  -1   0 643848. 14918.9   2
  -1   2   0 550836. 13832.2   4
  -1  -1   0 565547. 14445.2   8
   2  -1   0 656689. 14739.6   3
  -1   2   0 546687. 14174.7   8
   1   1   3 175306. 5123.00   3
  -2   1   3 178322. 5050.37   1
   1   1   3 173164. 5518.58   8
   1   1   3 167977. 5012.67   7
  -1   2   3 170707. 4506.34   2
  -1   2   3 173778. 4638.57   4
  -1   2   3 184752. 5494.84   6
  -1  -1   3 166763. 5515.67   3
   2  -1   3 172459. 5239.44   9
   1  -2   3 203116. 5884.94   6
  -1   2   3 169216. 5357.33   5
   2  -1   3 176371. 5690.03   7
  -2   1   3 178856. 5371.98   2
   1  -2   3 193571. 5331.89   4
   1  -2   3 177362. 4588.21   8
  -2   1   3 186110. 5575.92   3
  -1  -1   3 181789. 4813.83   8
  -2   1   3 190761. 5377.59   8
  -1  -1   6 799662. 21384.1   3
   1  -2   6 852576. 21107.5   6
  -1   2   6 852260. 21270.3   3
   1  -2   6 845080. 20107.1   8
  -2   1   6 813754. 21020.5   2
  -1   2   6 784361. 20405.7   9
  -2   1   6 833005. 21259.3   3
   1   1   6 771398. 21076.4   4
   1  -2   6 866668. 21157.4   4
  -1  -1   6 799059. 20176.2   8
   2  -1   6 840186. 21001.5   8
  -1   2   6 798692. 20464.3   4
  -2   1   6 794181. 20862.4   4
   2  -1   6 779696. 20500.8   9
  -1  -1   9 58887.0 3188.77   3
   1   1   9 60423.4 2202.98   3
  -2   1   9 58157.5 2930.30   3
   1   1   9 53814.2 2951.01   8
   2  -1   9 61522.2 2941.69   8
   1  -2   9 63061.2 2498.57   8
  -1   2   9 60966.3 2872.63   3
  -1   2   9 58421.5 2252.64   9
   1  -2   9 57191.3 2746.38   6
   2  -1   9 56670.7 2322.35   9
  -1  -1   9 56053.8 2261.64   8
   2  -1  12 441436. 12085.8   9
   1   1  12 447591. 11912.4   3
  -1   2  12 478000. 13348.4   3
  -1  -1  12 452449. 14053.1   3
   1   1  12 432663. 13632.6   8
  -2   1  12 436585. 13431.4   3
   1  -2  12 471694. 13054.8   6
   1  -2  12 496471. 13089.4   8
   2  -1  12 481894. 13745.0   8
  -1   2  15 18143.8 1595.30   3
   1  -2  15 19709.0 1767.62   8
  -1  -1  15 21981.3 2188.60   3
  -2   1  15 18484.4 1875.03   3
   2  -1  15 18293.7 1864.62   8
   1  -2  15 18021.5 1523.90   6
   1   1  15 19087.2 1951.64   8
   2  -1  18 256971. 9644.07   8
  -1  -1  18 291364. 10088.1   3
  -2   1  18 267345. 9790.30   3
   1   1  18 269307. 9976.10   8
  -1   2  18 271852. 10393.2   8
   0  -2 -19 452.226 305.861   4
   2   0 -19-1106.22 554.204   2
   0  -2 -16 272171. 9678.63   4
   2   0 -16 283328. 9290.08   1
   2   0 -16 293824. 10381.9   2
  -2   2 -13 161.873 360.503   4
   0  -2 -13 122.709 208.777   4
   2   0 -13 113.033 221.688   2
   2   0 -10 499847. 14718.8   2
   2   0 -10 508127. 13696.5   1
  -2   2 -10 514016. 13058.9   3
   0  -2 -10 515353. 13493.6   7
   0  -2 -10 496507. 14199.2   4
  -2   2 -10 519129. 15268.2   4
   2   0  -7-13.2690 95.9647   1
   2   0  -7 218.515 259.688   2
   0  -2  -7 40.4013 105.927   4
   0  -2  -7-121.540 108.947   7
  -2   2  -7 98.2270 199.776   4
  -2   2  -7 699.848 233.021   3
  -2   2  -7 428.754 278.897   6
   0  -2  -4 849231. 20602.2   2
   0  -2  -4 887703. 22260.0   1
   2   0  -4 818510. 20678.9   1
  -2   2  -4 865848. 22404.0   7
  -2   2  -4 858335. 22293.0   4
   2   0  -4 851637. 21456.8   8
  -2   2  -4 846925. 21928.0   6
  -2   2  -4 871842. 21526.8   8
   0  -2  -4 828400. 21250.0   4
   2   0  -4 886531. 22141.3   2
  -2   2  -1-30.8815 138.042   6
  -2   2  -1 26.4746 65.8338   8
   2   0  -1 124.705 144.695   2
   0  -2  -1 194.458 119.163   1
   0  -2  -1 415.687 228.660   6
  -2   2  -1 95.8203 140.747   7
   2   0  -1 50.1335 60.6065   5
  -2   2  -1 12.2849 42.1689   5
   2   0  -1 148.968 113.008   3
   2   0  -1 21.3654 76.3361   8
  -2   2   2 583568. 15035.8   9
   2   0   2 584290. 14447.8   3
  -2   2   2 595128. 14480.5   2
   2   0   2 542572. 14366.9   5
  -2   2   2 555952. 14639.3   8
   0  -2   2 574591. 14258.1   1
  -2   2   2 535391. 15009.9   3
   0  -2   2 557449. 14347.1   4
  -2   2   2 586578. 14462.9   5
   0  -2   2 544564. 14984.0   6
  -2   2   5-77.9496 110.836   9
   0  -2   5 39.6988 102.813   4
   2   0   5-35.4433 141.976   7
   0  -2   5 136.493 320.248   6
   0  -2   5-41.7647 235.087   3
  -2   2   5-20.0819 93.9418   4
  -2   2   5 19.2338 139.707   3
   2   0   5 81.8102 65.2815   3
   0  -2   8 737805. 17707.9   8
   2   0   8 706212. 19147.6   8
   0  -2   8 708986. 19100.6   6
   0  -2   8 706893. 18760.5   3
  -2   2   8 673878. 18782.1   3
   0  -2  11 357.305 226.733   8
  -2   2  11-155.515 214.592   3
   0  -2  11 244.780 337.913   3
   0  -2  11 1.73416 389.838   6
   2   0  11 297.728 308.838   8
   0  -2  14 449317. 13300.2   3
   0  -2  14 433773. 13287.8   6
  -2   2  14 423463. 13229.4   3
   2   0  14 413709. 13468.4   8
   0  -2  14 457157. 12713.0   8
   0  -2  17 463.432 354.880   6
  -2   2  17 144.323 281.585   3
   2   0  17-418.584 445.912   8
   3  -3 -18 279272. 9857.30   1
  -3   0 -15-555.432 419.034   4
   3  -3 -15-6.61248 245.255   1
   0   3 -15 453.664 434.636   2
   3  -3 -12 431531. 12219.3   2
   0   3 -12 431231. 13769.9   2
  -3   0 -12 410073. 13416.2   4
   3  -3 -12 409893. 12798.3   1
  -3   0  -9 456.469 346.813   4
   3  -3  -9-175.297 190.648   2
   3  -3  -9 288.387 280.479   1
   0   3  -9 65.9394 235.651   2
   0   3  -6 443568. 12552.5   2
  -3   0  -6 396101. 11366.0   9
   3  -3  -6 452500. 12403.3   1
  -3   0  -6 429200. 12898.0   4
   3  -3  -6 437347. 11925.8   2
   0   3  -6 444409. 11480.0   1
  -3   0  -3-8.94421 114.409   4
  -3   0  -3 63.6108 77.6128   5
  -3   0  -3-18.2121 199.153   3
   3  -3  -3 75.5760 96.5318   5
   0   3  -3 89.2845 172.582   5
   0   3  -3 122.378 142.554   1
   0   3  -3-5.84067 152.311   2
   3  -3   0 898085. 22271.1   8
  -3   0   0 839282. 22536.0   3
  -3   0   0 793156. 21463.4   1
   0   3   0 848125. 21875.0   8
   3  -3   0 939964. 22914.1   7
   0   3   0 872271. 22529.8   5
   0   3   0 979990. 22387.5   1
   0   3   0 875468. 21636.6   2
   3  -3   0 908464. 22461.9   1
   3  -3   3-39.4911 174.499   9
  -3   0   3 62.5085 76.1622   1
  -3   0   3 67.6162 283.618   3
   3  -3   3 162.966 136.521   8
   0   3   3 27.7023 231.238   8
   0   3   3-47.3696 167.902   5
   0   3   6 405044. 11997.9   8
   0   3   6 382134. 11831.6   5
   3  -3   6 424878. 12008.5   9
   3  -3   6 409089. 11099.5   8
  -3   0   6 384656. 12054.4   3
   3  -3   9-142.084 153.637   8
   0   3   9 675.739 472.792   8
   3  -3   9 54.4829 151.205   9
  -3   0   9 12.3210 336.870   3
   0   3  12 439805. 14055.2   8
   3  -3  12 465538. 12949.3   8
   3  -3  12 423392. 13049.2   9
   0   3  12 454846. 12769.3   3
  -3   0  12 445337. 14383.6   3
   0   3  15 189.834 461.013   8
   3  -3  15-239.717 217.109   9
  -3   0  15 435.046 544.535   3
   3  -3  15 126.629 228.674   8
  -3   0  18 297813. 11657.0   3
   1   2 -16 313751. 11221.2   2
   3  -2 -16 274063. 9533.86   1
   2  -3 -16 259396. 9628.20   1
   3  -2 -16 262165. 9384.77   2
  -2  -1 -16 309848. 10601.1   4
  -1   3 -16 320920. 11101.5   4
  -3   1 -16 303503. 10871.9   4
  -2  -1 -13 4192.49 899.636   4
   2  -3 -13 3570.97 568.966   2
   2  -3 -13 3299.89 737.959   1
  -3   1 -13 5635.27 1054.56   4
   3  -2 -13 4136.24 777.799   2
   3  -2 -13 3710.28 731.645   1
   1   2 -13 3692.06 921.035   2
  -1   3 -13 4431.27 940.750   4
   2  -3 -10 537308. 13519.4   2
  -1   3 -10 509564. 14706.1   4
   3  -2 -10 492009. 14411.8   2
   3  -2 -10 497031. 14061.0   1
   2  -3 -10 494304. 14784.7   1
  -3   1 -10 464042. 14920.6   4
  -2  -1 -10 506395. 14889.0   4
   1   2 -10 502936. 15157.4   2
   1   2  -7 11036.7 683.755   1
  -1   3  -7 12165.0 1116.88   4
  -2  -1  -7 10486.8 1214.29   4
   2  -3  -7 10620.8 769.426   2
  -3   1  -7 10228.6 674.204   6
   1   2  -7 11668.4 1235.09   2
  -3   1  -7 10886.8 1316.34   4
   2  -3  -7 9625.99 1146.03   1
   3  -2  -7 9133.75 908.209   1
   3  -2  -7 10901.3 1020.44   5
   3  -2  -7 10063.7 1085.25   2
  -3   1  -4 676629. 18469.0   4
  -2  -1  -4 629152. 17886.5   4
   2  -3  -4 703397. 18055.2   9
  -3   1  -4 671144. 17812.2   9
   2  -3  -4 714652. 16958.3   7
   2  -3  -4 725817. 18149.1   1
   1   2  -4 660454. 16647.3   1
  -3   1  -4 635391. 16947.0   3
   1   2  -4 671356. 17860.5   2
  -3   1  -4 660392. 17186.2   5
   3  -2  -4 743255. 17171.9   5
   3  -2  -4 682664. 17956.9   2
   2  -3  -4 726057. 17783.2   5
  -1   3  -4 667776. 17296.2   4
  -2  -1  -4 648445. 17185.8   6
  -2  -1  -4 696296. 17747.4   2
   3  -2  -4 679156. 17455.2   1
   3  -2  -1 21846.6 1290.55   1
   2  -3  -1 24287.6 1787.68   9
   1   2  -1 21864.9 1373.14   5
  -2  -1  -1 23627.0 1435.45   3
  -2  -1  -1 23405.9 1493.93   2
   1   2  -1 19928.2 1233.25   2
   2  -3  -1 22252.0 1395.44   1
  -3   1  -1 21922.4 1307.99   3
   1   2  -1 21362.9 1086.48   8
  -2  -1  -1 25571.9 1527.16   8
  -1   3  -1 22257.9 1408.32   5
  -2  -1  -1 22136.1 1277.99   5
  -1   3  -1 24652.5 1397.39   1
  -3   1  -1 23002.6 1273.77   1
  -1   3  -1 22563.6 970.570   8
   3  -2   2 657194. 17091.2   7
  -1   3   2 638312. 16583.1   5
   1   2   2 593192. 15785.3   2
   3  -2   2 646780. 16447.2   8
   2  -3   2 667452. 16539.3   1
  -2  -1   2 586822. 16723.7   3
   1   2   2 654836. 16875.2   3
   2  -3   2 700816. 17308.7   6
  -2  -1   2 612287. 16113.1   8
  -3   1   2 613448. 16596.9   3
   3  -2   2 648064. 16902.5   9
   1   2   2 596646. 16488.2   8
   1   2   2 601123. 16468.6   5
  -3   1   2 629186. 15882.6   1
  -1   3   5 14785.8 790.824   4
   3  -2   5 17586.7 1270.16   8
   3  -2   5 15719.6 1290.57   9
  -2  -1   5 14261.9 1426.84   3
  -3   1   5 15887.9 1364.14   3
   1   2   5 15018.5 1342.70   8
   1   2   5 13157.5 1226.30   5
  -1   3   5 14688.7 1300.86   5
  -2  -1   5 17122.1 1094.71   8
   2  -3   5 15705.2 1392.04   6
   1   2   5 14849.9 1170.15   3
   2  -3   5 16940.1 1391.89   4
   2  -3   5 15095.0 875.890   8
  -3   1   8 535081. 15485.8   3
  -2  -1   8 545178. 16043.7   3
   1   2   8 512357. 15335.0   8
   3  -2   8 529980. 14790.0   9
   2  -3   8 580879. 15349.1   6
   2  -3   8 562685. 14058.0   8
  -1   3   8 528020. 14525.1   4
  -1   3   8 531956. 15214.1   3
   3  -2   8 555664. 15002.4   8
   3  -2  11 5505.57 857.568   8
   3  -2  11 4781.33 691.690   9
  -1   3  11 4752.64 805.211   3
   1   2  11 4218.60 877.585   8
   2  -3  11 4829.93 797.065   6
   2  -3  11 5734.11 685.464   8
   1   2  11 5266.00 634.228   3
  -2  -1  11 5370.27 1157.19   3
  -3   1  11 4495.64 892.240   3
   2  -3  14 426655. 11615.9   8
   3  -2  14 392358. 12351.6   8
  -2  -1  14 410135. 13714.3   3
   2  -3  14 406664. 11799.9   6
  -3   1  14 385193. 12915.2   3
   1   2  14 392979. 12875.4   8
   3  -2  14 394191. 11256.1   9
  -1   3  14 374066. 11784.0   3
  -1   3  17 1689.88 763.455   8
   1   2  17 2822.66 803.268   8
   3  -2  17 1377.91 573.839   8
  -2  -1  17 1724.72 859.334   3
  -3   1  17 2410.47 803.231   3
  -2   3 -17 1805.22 700.323   4
   1  -3 -17 971.553 399.660   4
  -1  -2 -17 1181.88 525.181   4
  -3   2 -17 1435.94 640.723   4
   3  -1 -17 2228.04 691.974   2
   2   1 -17 673.391 450.514   2
   1  -3 -14 335409. 11543.7   1
   3  -1 -14 363740. 11876.5   2
   3  -1 -14 404487. 11106.4   1
   1  -3 -14 350799. 10940.0   4
  -2   3 -14 388635. 12616.0   4
  -1  -2 -14 364644. 11675.1   4
  -3   2 -14 378622. 12821.2   4
   2   1 -14 363655. 12289.0   2
  -3   2 -11 4290.08 949.858   4
   3  -1 -11 4598.45 669.253   1
   1  -3 -11 4836.80 507.140   2
  -1  -2 -11 4196.91 785.305   4
   3  -1 -11 3599.29 778.262   2
   1  -3 -11 5107.74 712.080   4
  -2   3 -11 6068.11 1064.88   4
   2   1 -11 5053.10 946.829   2
   1  -3 -11 3984.78 814.014   1
  -1  -2  -8 536956. 13929.1   2
   1  -3  -8 554645. 13180.0   2
   2   1  -8 537871. 13346.6   1
   1  -3  -8 554593. 15598.6   1
   1  -3  -8 530019. 13142.6   7
   2   1  -8 536229. 15316.4   2
   3  -1  -8 561467. 15371.6   2
  -3   2  -8 598930. 14292.9   6
  -3   2  -8 513414. 13092.2   3
   3  -1  -8 548760. 14012.4   1
   1  -3  -8 547517. 14107.3   4
  -2   3  -8 560208. 15327.4   4
  -1  -2  -8 539033. 14871.0   4
  -3   2  -8 520419. 15638.3   4
   1  -3  -5 14486.6 1330.74   1
  -1  -2  -5 13402.7 885.808   2
   3  -1  -5 14780.8 1327.86   2
  -3   2  -5 17604.1 1270.08   6
   2   1  -5 14547.3 1280.27   2
   3  -1  -5 14427.9 890.821   1
  -2   3  -5 17127.3 1042.76   8
  -2   3  -5 18064.0 1328.96   3
  -3   2  -5 16196.0 1578.59   4
  -3   2  -5 15755.2 890.754   3
  -1  -2  -5 15377.7 1237.73   4
   1  -3  -5 13667.6 1035.31   9
   1  -3  -5 14475.4 739.145   4
  -2   3  -5 15927.0 1235.98   4
  -1  -2  -5 14847.9 1020.32   6
   3  -1  -2 664399. 16978.4   2
  -2   3  -2 627778. 15964.1   8
   2   1  -2 598791. 16128.6   8
   2   1  -2 635170. 16731.0   2
   1  -3  -2 639640. 16668.9   1
  -1  -2  -2 625287. 16297.4   2
  -1  -2  -2 613308. 16513.0   6
  -2   3  -2 647284. 16724.5   7
  -3   2  -2 628869. 16350.5   3
  -1  -2  -2 612065. 16457.0   1
   3  -1  -2 666647. 16692.4   8
   3  -1  -2 651290. 15367.6   5
   2   1  -2 637968. 16270.9   5
  -2   3  -2 636996. 16394.0   5
  -2   3  -2 632378. 16141.4   4
  -3   2  -2 655729. 17005.8   4
   1  -3  -2 626028. 16932.9   6
  -2   3   1 22875.9 1150.92   2
   2   1   1 22052.8 1379.92   8
  -2   3   1 23370.5 1302.59   8
   1  -3   1 21941.0 1314.95   1
  -3   2   1 23234.3 1505.62   3
  -1  -2   1 25434.7 1517.33   2
   2   1   1 21727.3 1434.21   3
   1  -3   1 25578.6 1788.14   6
   2   1   1 20492.9 1298.99   2
  -1  -2   1 23300.0 1588.34   6
  -1  -2   1 22642.5 1003.93   1
   2   1   1 20590.8 1254.44   5
  -2   3   1 19080.6 1241.05   5
  -3   2   1 22312.2 1364.38   1
   3  -1   1 22758.2 1412.40   3
  -2   3   1 25580.3 1080.33   4
   1  -3   1 25387.1 1015.10   4
  -1  -2   1 22163.8 1203.60   8
  -1  -2   4 678481. 16931.2   8
   2   1   4 660669. 18216.4   8
   2   1   4 649118. 17776.7   7
   2   1   4 693130. 17676.5   3
  -3   2   4 724775. 17938.7   1
   1  -3   4 707069. 18664.2   6
  -3   2   4 690586. 18422.6   3
   2   1   4 654793. 17908.2   5
  -2   3   4 724200. 18192.3   5
   3  -1   4 683287. 18444.3   7
  -1  -2   4 710553. 18463.1   3
  -2   3   4 656811. 16958.9   4
   1  -3   4 716936. 17677.2   4
  -2   3   4 685820. 17068.7   2
   3  -1   7 10821.9 1136.50   8
  -3   2   7 10513.3 1228.08   3
   2   1   7 10050.0 798.929   3
   1  -3   7 11008.6 1251.45   6
  -1  -2   7 11457.1 688.296   8
  -2   3   7 11138.8 1282.83   3
  -1  -2   7 12654.0 1333.79   3
  -2   3   7 10523.0 854.777   4
   2   1   7 11616.5 1279.03   8
   3  -1  10 483149. 14674.2   8
   1  -3  10 531355. 13004.0   8
   2   1  10 512323. 12885.5   3
   1  -3  10 513397. 14897.7   6
  -1  -2  10 495745. 15106.6   3
  -2   3  10 547814. 15303.1   3
  -3   2  10 530005. 15174.7   3
   2   1  10 471491. 14908.6   8
   2   1  10 509429. 12819.3   3
   2   1  13 4267.90 902.545   8
   1  -3  13 3381.68 776.874   6
  -1  -2  13 4063.98 946.178   3
   3  -1  13 4988.69 946.466   8
  -3   2  13 3392.62 811.842   3
  -2   3  13 4044.35 843.833   3
   3  -1  16 284990. 10219.3   8
  -1  -2  16 289997. 10653.5   3
   2   1  16 310003. 10666.9   8
   1  -3  16 327395. 10181.8   6
  -3   2  16 289019. 10339.7   3
  -2   3  16 285401. 9771.57   3
  -1  -2  16 269253. 10391.3   6
  -3   2  19 1568.03 636.726   3
  -3   3 -15 476.055 474.437   4
   0  -3 -15-33.1405 299.117   1
   0  -3 -15-675.524 344.579   4
   3   0 -15 64.0656 224.626   2
   3   0 -12 399693. 12959.0   2
   0  -3 -12 363351. 12630.7   1
   0  -3 -12 405053. 11946.9   4
  -3   3 -12 426005. 13676.0   4
   3   0 -12 447861. 11258.5   1
   0  -3  -9 142.391 278.258   1
   0  -3  -9-23.0798 74.8154   4
  -3   3  -9-2.01643 185.716   4
   0  -3  -9 64.9408 44.2915   2
   3   0  -9 97.0032 216.405   2
   3   0  -9 126.901 98.8220   1
   0  -3  -9 274.322 95.0585   2
   3   0  -6 419826. 10506.8   1
   3   0  -6 432776. 12609.7   2
   0  -3  -6 413797. 12503.1   1
   0  -3  -6 417731. 11212.7   4
  -3   3  -6 435708. 12632.6   4
   0  -3  -6 443698. 11210.5   9
  -3   3  -3-51.0505 167.465   4
   3   0  -3 41.9981 94.7286   8
   0  -3  -3 79.2326 240.900   6
   0  -3  -3 14.4821 80.1312   4
   0  -3  -3-316.908 247.767   1
   3   0  -3-72.6511 174.782   2
   3   0  -3 92.3443 91.8943   5
  -3   3   0 936045. 23717.6   4
   3   0   0 966119. 24179.7   2
  -3   3   0 999999. 23869.4   2
   0  -3   0 912782. 23422.4   1
   3   0   0 934026. 23089.7   5
  -3   3   0 911597. 23079.5   5
  -3   3   0 930401. 24226.9   3
   0  -3   0 875442. 24175.1   6
   0  -3   0 927579. 22957.8   4
   3   0   0 875021. 23791.4   8
   0  -3   3 86.5799 108.754   4
  -3   3   3 16.0867 233.100   3
   3   0   3-135.805 160.653   8
   3   0   3 149.045 188.129   7
   0  -3   3 67.1190 292.952   6
  -3   3   3-8.60925 119.686   2
   0  -3   3 27.5192 122.788   1
   3   0   3 106.342 126.769   3
   3   0   6 410168. 12467.2   8
   3   0   6 436659. 11061.2   3
   0  -3   6 409077. 12675.7   6
  -3   3   6 437807. 11797.1   2
  -3   3   6 430683. 12885.6   3
  -3   3   6 435440. 11742.6   4
   3   0   6 427561. 12506.1   7
   3   0   9 140.206 227.280   8
   0  -3   9 234.815 348.927   6
  -3   3   9-259.165 283.124   3
   0  -3  12 450660. 14024.3   6
  -3   3  12 474490. 14259.6   3
   3   0  15 311.180 275.345   8
   0  -3  15-95.3573 405.562   6
  -3   3  15 479.201 346.797   3
  -3   3  18 246806. 9108.12   3
   4  -4 -16 218430. 8362.52   1
   4  -4 -13 252.300 285.371   1
  -4   0 -13 131.780 298.781   4
   0   4 -13 364.455 345.485   2
   4  -4 -10 461122. 12935.4   2
  -4   0 -10 439400. 14352.4   4
   4  -4 -10 427798. 13562.1   1
   0   4 -10 476250. 14637.6   2
  -4   0  -7 177.804 300.852   4
   4  -4  -7-142.410 223.918   1
  -4   0  -4 453936. 12193.8   3
   4  -4  -4 426597. 12810.7   1
   4  -4  -4 458560. 12695.8   7
   0   4  -4 458204. 12639.6   2
   0   4  -4 434991. 13008.8   5
  -4   0  -4 410842. 13135.2   4
   4  -4  -1 27.4692 189.119   9
   0   4  -1-16.6027 67.4478   8
   4  -4  -1 141.144 248.877   7
  -4   0  -1 75.6847 102.272   1
   0   4  -1 433.868 313.994   5
  -4   0  -1-1.45754 258.249   3
   4  -4  -1-92.3711 178.400   1
   0   4  -1 180.022 154.233   2
   0   4   2 565181. 15474.1   8
   4  -4   2 555248. 15442.4   8
  -4   0   2 560292. 16451.7   3
   0   4   2 581162. 14093.2   2
   0   4   2 548995. 16097.4   5
   4  -4   2 591105. 16890.7   9
  -4   0   2 562466. 14165.9   1
   0   4   5 174.274 242.105   8
   4  -4   5 302.328 197.645   8
   4  -4   5 315.802 267.582   9
   0   4   5-235.681 264.997   5
  -4   0   5 20.7143 368.354   3
   0   4   8 408260. 12773.8   8
   4  -4   8 420997. 11775.7   8
  -4   0   8 394282. 13221.7   3
   4  -4   8 409949. 12759.1   9
   0   4  11 313.461 350.071   8
   4  -4  11-28.2515 127.914   8
   0   4  11 117.895 223.632   3
  -4   0  11 35.0529 469.348   3
   4  -4  11 20.2891 212.711   9
   0   4  14 302385. 10733.5   8
  -4   0  14 293947. 11340.0   3
   4  -4  14 268617. 9548.01   9
   4  -3 -17 2850.93 769.987   1
  -3  -1 -17 3206.04 881.019   4
   4  -3 -14 280030. 9707.46   2
   1   3 -14 328331. 11529.8   2
   4  -3 -14 300552. 9955.19   1
  -1   4 -14 305210. 10799.5   4
   3  -4 -14 293672. 10370.5   1
  -3  -1 -14 315407. 10948.2   4
  -4   1 -14 319844. 11277.1   4
  -4   1 -11 6991.07 1203.39   4
   1   3 -11 7523.25 1268.57   2
   4  -3 -11 7803.07 1037.35   1
   4  -3 -11 4721.38 887.746   2
  -1   4 -11 6579.86 1045.54   4
   3  -4 -11 7576.16 1188.31   1
  -3  -1 -11 8199.36 1229.95   4
   4  -3  -8 461989. 13652.5   2
   1   3  -8 457904. 13880.6   2
   4  -3  -8 468801. 13164.3   1
   3  -4  -8 464250. 13883.8   1
  -1   4  -8 470457. 13209.1   4
  -3  -1  -8 454146. 14043.1   4
  -4   1  -8 462027. 14544.9   4
   4  -3  -5 13990.0 1382.95   2
  -4   1  -5 16490.6 1056.55   3
   4  -3  -5 13954.1 1223.12   1
   1   3  -5 14160.9 1324.03   2
   1   3  -5 14336.9 823.565   1
  -3  -1  -5 16131.8 1121.09   6
   3  -4  -5 12480.7 1331.51   1
  -3  -1  -5 12642.6 1351.76   4
  -4   1  -5 18029.2 1725.56   4
  -4   1  -5 13801.4 1025.99   5
   4  -3  -5 16184.6 934.914   5
   1   3  -5 12893.2 1285.25   5
  -1   4  -5 13363.9 1320.01   5
   3  -4  -5 13931.5 959.433   7
  -1   4  -2 615156. 15068.4   8
   4  -3  -2 607585. 16540.6   8
   4  -3  -2 596342. 16269.0   1
   1   3  -2 582360. 16068.7   2
  -3  -1  -2 582851. 16272.7   3
   1   3  -2 615331. 15286.3   8
   3  -4  -2 599966. 16589.5   1
  -4   1  -2 626397. 16360.5   3
   4  -3  -2 646080. 17060.3   7
   1   3  -2 570204. 16436.9   5
  -1   4  -2 621344. 16711.6   5
   3  -4  -2 628224. 17361.2   9
  -1   4  -2 577796. 14826.9   8
  -1   4   1 18225.4 867.336   7
   3  -4   1 19365.7 1491.73   1
   1   3   1 19048.6 1149.83   2
   1   3   1 19361.3 1328.77   8
  -3  -1   1 18132.0 687.562   1
  -3  -1   1 17672.9 738.804   1
   4  -3   1 15427.6 1540.01   7
  -1   4   1 18993.4 877.203   2
   4  -3   1 20456.8 1505.24   8
  -4   1   1 17334.1 1463.85   3
  -4   1   1 19716.1 1185.92   1
   1   3   1 16476.9 1430.62   5
  -1   4   1 20022.5 1593.45   5
  -3  -1   1 18958.5 1585.31   3
   3  -4   1 18653.7 1799.70   9
   1   3   4 461434. 13579.3   8
   4  -3   4 485109. 13328.6   8
  -4   1   4 504734. 12523.4   1
   1   3   4 472523. 12210.1   7
  -3  -1   4 424509. 13879.9   3
   3  -4   4 529358. 14536.5   9
  -4   1   4 465146. 13782.7   3
   1   3   4 418933. 13427.2   5
  -1   4   4 476637. 13748.4   5
   4  -3   4 477340. 13926.0   9
   3  -4   4 481752. 12659.2   8
   1   3   7 11423.0 1316.58   8
   3  -4   7 12686.5 956.946   8
  -3  -1   7 10823.2 1479.62   3
   3  -4   7 10567.8 1218.57   6
  -4   1   7 12721.5 1482.38   3
   4  -3   7 10922.1 1236.91   9
  -1   4   7 11565.9 1353.83   5
   4  -3   7 11077.7 1165.53   8
   3  -4   7 10124.6 1307.63   9
   1   3   7 10319.1 1253.26   5
   4  -3  10 471245. 13776.3   8
   3  -4  10 502236. 12785.9   8
   3  -4  10 465913. 13719.7   6
  -4   1  10 479712. 14866.3   3
   1   3  10 454681. 14321.3   8
   4  -3  10 455011. 13628.2   9
  -1   4  10 459119. 13933.7   3
   1   3  13 5836.07 1123.81   8
   3  -4  13 6278.78 929.483   6
   4  -3  13 6455.20 1022.78   8
  -3  -1  13 8198.29 1521.28   3
  -4   1  13 4362.36 1042.97   3
  -1   4  13 5536.64 932.141   3
   4  -3  13 6130.03 888.604   9
   1   3  16 251600. 9795.75   8
  -3  -1  16 274004. 10793.6   3
  -4   1  16 258717. 10147.4   3
  -1   4  16 259847. 10133.8   8
   3  -4  16 237034. 8864.62   9
   4  -3  16 258648. 9152.77   8
   2  -4 -15 8099.52 1305.63   1
  -2  -2 -15 7506.87 1210.01   4
  -4   2 -15 4678.94 1122.00   4
   4  -2 -15 6804.51 1141.68   2
  -2   4 -15 9918.97 1537.14   4
   2   2 -15 7020.36 1341.69   2
  -2   4 -12 366359. 11749.8   4
   2   2 -12 367312. 12104.7   2
   4  -2 -12 371760. 10591.1   1
  -2  -2 -12 344949. 11400.8   4
  -4   2 -12 364193. 12385.4   4
   2  -4 -12 329810. 11442.1   1
   4  -2 -12 349611. 11541.6   2
   4  -2  -9 14325.0 1575.30   2
   2   2  -9 16222.1 1669.56   2
   4  -2  -9 16437.9 1237.49   1
   2  -4  -9 14046.4 1616.25   1
  -2   4  -9 19446.8 1678.96   4
  -2  -2  -9 19156.8 1712.26   4
  -4   2  -9 14420.8 1733.71   4
   4  -2  -6 549783. 16404.6   2
   4  -2  -6 572643. 15297.2   1
   2   2  -6 533338. 16022.9   2
  -2  -2  -6 562728. 15082.2   6
  -4   2  -6 598378. 14770.0   3
  -4   2  -6 558771. 15105.3   5
   2  -4  -6 571806. 16417.4   1
  -2   4  -6 578734. 15636.1   4
  -4   2  -6 596000. 17389.4   4
  -2  -2  -6 570272. 16330.2   4
   2  -4  -6 571705. 15731.2   9
  -4   2  -3 35655.3 2306.77   4
   4  -2  -3 28954.2 2048.36   2
   2   2  -3 29351.1 1497.12   8
  -2   4  -3 30343.2 1300.74   8
  -2  -2  -3 31449.8 1883.43   4
  -2  -2  -3 31725.2 1814.66   6
  -4   2  -3 32728.8 1723.34   3
   2  -4  -3 32150.0 2055.46   1
   4  -2  -3 30545.6 1979.35   8
   2   2  -3 29495.6 1813.41   5
  -2   4  -3 32413.3 1954.28   5
   2   2  -3 31215.4 1947.77   2
   4  -2  -3 32475.6 1729.95   1
  -2   4  -3 33468.3 1472.28   4
   2  -4  -3 30215.7 2039.68   9
   4  -2   0 530363. 14590.4   8
   2   2   0 529260. 14118.1   8
   2  -4   0 554600. 15233.9   9
   2   2   0 511311. 14176.5   2
  -2   4   0 524656. 13789.0   8
  -2   4   0 513134. 13708.8   7
   4  -2   0 554331. 15108.4   7
   2  -4   0 529147. 15054.5   6
  -4   2   0 531446. 14497.5   3
   2   2   0 503056. 14278.5   5
  -2   4   0 544254. 14494.6   5
  -2  -2   0 528396. 13407.0   1
   2  -4   0 547758. 14568.2   1
   2  -4   3 32504.5 1959.15   1
  -2  -2   3 32724.8 1693.33   8
   2   2   3 33439.9 2058.88   8
   2  -4   3 33927.0 1550.89   4
  -2  -2   3 32566.1 2183.19   3
   4  -2   3 30505.6 2201.52   7
  -2   4   3 32278.6 1108.74   2
   2  -4   3 30711.3 2230.60   6
  -4   2   3 35747.3 2257.72   3
   4  -2   3 30528.5 1982.41   8
  -2   4   3 30917.6 1971.79   5
   2   2   3 28757.0 1877.55   5
  -2   4   6 553858. 14078.6   4
  -2  -2   6 621750. 14900.1   8
   2   2   6 568515. 15281.0   7
  -2  -2   6 550518. 16387.9   3
   2   2   6 554010. 16289.5   8
   2  -4   6 594675. 16728.6   6
  -4   2   6 595310. 16556.2   3
   2   2   6 550561. 15928.0   5
  -2   4   6 578249. 16158.7   5
   4  -2   6 587324. 16019.5   8
   4  -2   9 17081.5 1613.61   8
   2   2   9 16533.1 1717.16   8
  -2  -2   9 19657.9 1991.19   3
   2  -4   9 14248.4 1633.33   6
  -4   2   9 17264.4 1781.37   3
  -2   4   9 16882.6 1724.88   3
   2   2  12 329474. 11361.3   8
  -2  -2  12 373694. 12391.3   3
   4  -2  12 337663. 11085.8   8
   2  -4  12 349238. 11327.2   6
  -4   2  12 340791. 11543.3   3
  -2   4  12 343531. 11220.4   3
   4  -2  15 8538.40 1342.89   8
   2   2  15 7904.41 1341.44   8
   2  -4  15 8484.09 1203.99   6
  -2   4  15 7127.86 1144.19   3
  -2  -2  15 8363.95 1602.16   3
  -4   2  15 5755.32 1199.86   3
  -2  -2  18 240772. 10089.1   3
   1  -4 -16 234530. 9100.98   1
   4  -1 -16 257199. 9533.86   2
   3   1 -16 258436. 9784.98   2
  -1  -3 -16 233775. 9175.70   1
  -3   4 -16 256483. 9977.40   4
  -4   3 -16 255768. 10345.8   4
  -1  -3 -13 5511.64 924.532   4
  -4   3 -13 5580.34 1221.04   4
  -3   4 -13 4838.76 1069.87   4
   4  -1 -13 6466.55 1153.51   2
   3   1 -13 5098.42 1043.48   2
  -1  -3 -13 4473.73 972.591   1
   1  -4 -13 5414.37 1028.08   1
   3   1 -10 456588. 14073.0   2
   4  -1 -10 448837. 14107.4   2
   4  -1 -10 490969. 12210.6   1
  -1  -3 -10 409899. 13801.2   1
   1  -4 -10 462335. 12269.1   4
  -3   4 -10 460653. 14040.4   4
  -1  -3 -10 474261. 13232.7   4
  -4   3 -10 442646. 14614.8   4
   1  -4 -10 427060. 14032.3   1
   4  -1  -7 12830.7 847.041   1
   4  -1  -7 11746.9 1424.14   2
   3   1  -7 11755.0 1354.06   2
   1  -4  -7 11078.1 958.929   9
  -4   3  -7 11184.3 1458.72   4
  -1  -3  -7 11613.9 1334.11   1
  -4   3  -7 13382.8 917.791   3
  -3   4  -7 13013.3 1317.48   4
  -1  -3  -7 11690.2 1086.38   4
  -1  -3  -7 12969.6 781.962   9
   1  -4  -7 8918.41 1252.42   1
  -3   4  -4 493460. 13108.1   8
   4  -1  -4 488032. 14408.0   2
   3   1  -4 468597. 13296.0   8
   3   1  -4 478249. 14115.7   2
  -1  -3  -4 467991. 13641.8   6
  -1  -3  -4 511636. 13496.4   4
  -1  -3  -4 490156. 12805.6   2
  -4   3  -4 490346. 13330.8   3
   4  -1  -4 523301. 12458.2   5
   3   1  -4 475838. 13299.9   5
  -3   4  -4 499791. 13530.1   5
   1  -4  -4 466298. 13965.3   1
  -1  -3  -4 481406. 13960.3   1
  -3   4  -4 503199. 13567.5   4
   1  -4  -4 499269. 13752.5   9
   4  -1  -4 484335. 13837.4   8
  -4   3  -4 545968. 15171.1   4
   4  -1  -1 16002.2 1494.24   2
  -4   3  -1 19008.8 1563.14   4
   3   1  -1 21800.6 1601.74   2
   1  -4  -1 18260.1 1599.23   6
  -1  -3  -1 17855.0 1510.45   6
   4  -1  -1 18455.6 1476.59   8
  -4   3  -1 16810.8 688.116   5
  -4   3  -1 17821.5 1428.72   3
   3   1  -1 17348.3 1211.48   5
  -3   4  -1 16973.2 1226.22   5
   3   1  -1 19125.6 1379.52   8
  -1  -3  -1 17938.9 1214.48   1
   1  -4  -1 17553.8 1379.18   1
  -3   4  -1 18147.2 1125.17   4
   3   1   2 601074. 16834.7   2
   3   1   2 606102. 16990.8   8
   4  -1   2 594745. 17062.8   8
  -3   4   2 650932. 16199.6   2
  -1  -3   2 625306. 15791.2   1
  -3   4   2 623452. 15817.4   4
   4  -1   2 636587. 17433.3   7
   1  -4   2 629873. 17747.3   6
  -1  -3   2 606771. 17299.4   6
  -4   3   2 636116. 17398.1   3
   3   1   2 609777. 16546.4   5
  -3   4   2 591809. 16558.6   5
   1  -4   2 648630. 15712.1   4
   1  -4   2 629248. 16587.6   1
   4  -1   5 11991.6 1366.44   7
   3   1   5 13616.4 1273.11   7
   4  -1   5 13826.7 1399.21   8
   3   1   5 14274.9 1443.32   8
   1  -4   5 13564.6 1510.92   6
   3   1   5 15514.5 1188.41   3
  -1  -3   5 13750.6 1526.72   6
  -3   4   5 13944.0 971.482   2
  -4   3   5 15383.1 1582.57   3
  -3   4   5 15452.3 1690.44   3
  -3   4   5 15431.0 927.203   4
   1  -4   5 13811.5 1151.71   4
   4  -1   8 429399. 13285.6   8
  -1  -3   8 446460. 13701.1   3
   1  -4   8 459139. 13989.1   6
  -1  -3   8 436840. 13970.1   6
  -4   3   8 451590. 13928.0   3
  -3   4   8 461908. 14165.3   3
   3   1   8 435004. 13574.1   8
   4  -1  11 6966.70 1118.32   8
   1  -4  11 7092.48 1231.04   6
   3   1  11 6132.16 1064.87   8
  -1  -3  11 6244.90 1263.19   6
  -1  -3  11 6976.38 1249.87   3
  -4   3  11 5881.66 1132.92   3
  -3   4  11 6810.18 1208.27   3
   3   1  14 301184. 10751.5   8
   4  -1  14 304533. 10813.5   8
  -1  -3  14 320876. 11428.8   3
   1  -4  14 318681. 11201.1   6
  -1  -3  14 324200. 11837.0   6
  -4   3  14 326483. 11239.2   3
  -3   4  14 310136. 10895.3   3
  -1  -3  17 505.394 506.535   6
  -4   3  17 2377.26 836.093   3
  -3   4  17 2918.61 796.908   3
   4   0 -14 283437. 10092.2   2
  -4   4 -14 283749. 10597.8   4
  -4   4 -11 424.647 368.932   4
   0  -4 -11 172.183 278.399   1
   4   0 -11 203.748 229.451   2
   0  -4  -8 408268. 13332.8   1
   4   0  -8 426475. 13473.1   2
  -4   4  -8 446820. 12071.2   3
   0  -4  -8 442622. 11575.7   4
  -4   4  -8 437799. 13560.9   4
   0  -4  -5-21.4854 59.7716   4
  -4   4  -5 321.953 252.272   4
   4   0  -5 1.34187 206.559   8
  -4   4  -5-117.301 169.783   3
   0  -4  -5 392.382 302.265   1
   4   0  -5-282.678 289.046   2
   4   0  -5-39.2533 77.2306   5
  -4   4  -5-48.1324 132.706   5
   0  -4  -5-119.743 207.178   6
   4   0  -2 537315. 16050.5   2
   4   0  -2 541738. 15655.3   8
   0  -4  -2 545183. 16054.4   6
   4   0  -2 580693. 14710.1   5
   0  -4  -2 536152. 15468.7   1
  -4   4  -2 592343. 14821.8   5
  -4   4  -2 555274. 15847.7   3
   0  -4  -2 557065. 14207.7   4
   0  -4  -2 594158. 14297.8   4
  -4   4  -2 609472. 16372.4   4
   0  -4   1 45.9066 70.1242   4
   0  -4   1 315.137 206.946   1
  -4   4   1 8.81655 138.977   4
   4   0   1 47.9639 150.130   8
   0  -4   1 264.951 303.186   6
   4   0   1 26.2013 92.2898   5
  -4   4   1 506.428 195.018   5
  -4   4   1-139.518 197.534   3
   4   0   4 436578. 13074.4   8
   4   0   4 439145. 12959.8   7
   0  -4   4 424277. 13281.1   6
  -4   4   4 445442. 13544.9   3
   4   0   7-1.95709 103.369   8
   4   0   7 24.2965 178.221   7
   0  -4   7-308.043 381.892   6
  -4   4   7 299.629 282.260   3
   4   0  10 440039. 14062.7   8
   0  -4  10 452632. 14598.0   6
  -4   4  10 456994. 14593.8   3
   4   0  13 97.8058 246.085   8
   0  -4  13-339.259 481.759   6
  -4   4  13 374.834 395.314   3
   0  -4  16 214814. 9079.54   6
  -4   4  16 231500. 9150.15   3
  -5   0 -11 360.814 329.770   4
   5  -5 -11 433.100 334.104   1
   0   5 -11-520.111 410.514   5
   0   5 -11-722.868 481.929   2
  -5   0  -8 414164. 13722.0   4
   5  -5  -8 396901. 12753.5   1
   0   5  -8 412929. 12953.5   2
   0   5  -8 392226. 12936.1   5
   5  -5  -5 42.2941 239.877   1
  -5   0  -5 109.307 383.750   4
   5  -5  -5-382.279 248.464   7
   0   5  -5 8.34429 205.122   5
   0   5  -5-332.163 287.782   2
   5  -5  -2 259025. 9076.30   1
  -5   0  -2 277005. 8907.86   3
   0   5  -2 278579. 8134.55   2
   0   5  -2 257334. 9186.88   5
   5  -5   1-102.550 273.743   9
   0   5   1 152.500 254.345   5
  -5   0   1-6.74219 389.897   3
   0   5   4 530176. 15049.1   8
   5  -5   4 523620. 16183.6   9
   5  -5   4 509460. 14797.2   8
  -5   0   4 522871. 16336.2   3
   0   5   4 540659. 16046.6   5
   5  -5   7-230.762 217.427   9
   0   5   7 335.899 319.752   8
   5  -5   7-222.169 230.937   8
   0   5   7 83.0056 243.962   5
  -5   0   7 214.700 572.829   3
   0   5  10 246332. 9080.06   8
  -5   0  10 223432. 9704.79   3
   5  -5  10 247390. 9073.65   9
   5  -5  13 301.656 332.497   9
   0   5  13-257.481 329.493   8
   5  -4 -15 2081.84 641.649   1
   1   4 -12 309342. 11042.3   2
   5  -4 -12 269647. 9582.63   1
  -1   5 -12 300766. 11149.3   2
   4  -5 -12 288321. 10380.9   1
  -4  -1 -12 292351. 10502.6   4
  -5   1 -12 307806. 11057.2   4
  -4  -1  -9 4521.69 952.232   4
  -5   1  -9 4719.29 1007.26   4
  -1   5  -9 5633.19 1081.24   2
   5  -4  -9 5616.62 907.747   1
   4  -5  -9 3751.13 875.580   1
   5  -4  -9 4261.69 832.546   2
   1   4  -9 5214.09 997.165   5
   1   4  -9 4432.89 910.750   2
   5  -4  -6 418924. 12610.4   1
   5  -4  -6 428472. 13063.4   7
   1   4  -6 437695. 12828.4   2
   4  -5  -6 430613. 13270.3   1
  -1   5  -6 476418. 13175.3   2
   1   4  -6 407305. 13034.2   5
  -1   5  -6 411099. 13040.5   5
  -5   1  -6 421044. 13776.9   4
  -4  -1  -6 416623. 13370.7   4
  -5   1  -3 8848.14 1274.05   4
   5  -4  -3 8463.29 1075.48   1
  -4  -1  -3 6958.57 1078.95   4
   4  -5  -3 8159.45 1169.31   1
   1   4  -3 7716.13 953.607   2
   5  -4  -3 6231.03 1033.24   7
  -5   1  -3 9521.41 1113.25   3
  -1   5  -3 9037.29 970.147   2
   4  -5  -3 5790.82 1053.14   9
   1   4  -3 6100.70 965.810   5
  -1   5  -3 7416.24 1095.00   5
  -1   5   0 448191. 11721.5   8
   4  -5   0 412236. 12881.2   1
   1   4   0 446979. 11755.7   8
   1   4   0 430749. 11799.3   2
   5  -4   0 415375. 12674.5   8
  -4  -1   0 404814. 12820.8   3
   5  -4   0 407537. 13382.5   7
  -1   5   0 443520. 11248.5   2
  -5   1   0 442919. 13153.3   3
   1   4   0 421354. 13035.2   5
  -1   5   0 434131. 13228.5   5
   4  -5   0 439145. 13914.9   9
  -1   5   3 8696.18 1062.97   8
   1   4   3 8292.11 1076.45   8
   5  -4   3 6992.68 990.617   8
  -4  -1   3 8132.13 1253.29   3
   1   4   3 8138.83 664.528   7
  -5   1   3 6283.44 1074.26   3
   1   4   3 6555.35 1049.17   5
  -1   5   3 7001.82 1108.50   5
   4  -5   3 8097.77 1301.42   9
  -1   5   6 448083. 13731.5   8
   1   4   6 422548. 13365.9   8
   4  -5   6 464912. 14343.7   9
   5  -4   6 444166. 13174.9   8
   4  -5   6 481560. 12533.0   8
  -4  -1   6 453067. 14545.3   3
  -5   1   6 446585. 14214.6   3
   1   4   6 419617. 13681.7   5
  -1   5   6 452596. 13975.1   5
   5  -4   6 435215. 13805.7   9
   5  -4   9 6028.98 1048.43   9
  -1   5   9 4643.79 1031.74   8
   1   4   9 4450.43 920.051   8
   5  -4   9 4909.07 841.864   8
  -4  -1   9 4265.34 1136.12   3
  -5   1   9 5755.46 1213.99   3
   4  -5   9 5106.79 1008.58   9
  -1   5  12 259693. 9979.68   8
   1   4  12 278318. 10021.1   8
   5  -4  12 247868. 8977.73   9
  -4  -1  12 279528. 10816.1   3
   5  -4  12 273450. 9157.87   8
  -5   1  12 277169. 10556.0   3
  -1   5  12 259675. 9285.66   3
   4  -5  12 254036. 9550.13   9
   4  -5  15 3217.45 912.049   9
  -2   5 -13 690.895 377.181   4
   3  -5 -13 954.437 474.152   1
  -3  -2 -13 608.786 490.012   4
  -5   2 -13 1036.27 542.517   4
   5  -3 -13 770.632 389.446   2
   2   3 -13 641.704 498.821   2
   5  -3 -10 310456. 11062.9   2
   5  -3 -10 323953. 9926.59   1
   2   3 -10 326459. 11096.9   2
   3  -5 -10 317227. 11101.5   1
  -2   5 -10 347776. 10507.4   4
  -3  -2 -10 325130. 10996.6   4
  -5   2 -10 349261. 11918.6   4
  -2   5  -7 1197.96 354.958   4
   5  -3  -7 1699.98 441.049   1
  -3  -2  -7 1719.44 556.902   4
  -5   2  -7 1711.77 659.377   4
   5  -3  -7 931.916 438.920   2
   3  -5  -7 1667.44 576.112   1
   2   3  -7 1076.21 432.444   5
  -2   5  -7 1444.53 533.695   5
   2   3  -7 2001.05 591.810   2
  -5   2  -4 550404. 16642.5   4
  -3  -2  -4 540630. 15787.4   4
   5  -3  -4 527706. 15259.6   1
   2   3  -4 566161. 14360.8   8
   2   3  -4 550650. 15649.2   2
   3  -5  -4 534455. 16003.4   1
  -3  -2  -4 560391. 15183.7   6
   2   3  -4 542037. 15699.5   5
  -2   5  -4 553646. 15919.6   5
   3  -5  -4 539667. 15956.2   9
   3  -5  -1 2079.13 564.999   1
   2   3  -1 1941.35 387.280   8
   5  -3  -1 1169.45 424.409   8
   5  -3  -1 1761.35 582.298   7
  -3  -2  -1 2407.91 643.649   6
   2   3  -1 1652.12 437.667   2
   2   3  -1 1856.08 499.480   5
  -2   5  -1 2174.65 553.945   5
  -5   2  -1 1378.72 431.623   3
  -3  -2  -1 1973.30 359.588   1
   3  -5  -1 1702.05 567.399   9
   2   3   2 364895. 10158.0   2
   3  -5   2 368828. 10990.3   1
   2   3   2 337072. 10490.1   8
   5  -3   2 363949. 10973.5   8
  -3  -2   2 340998. 11078.4   3
   5  -3   2 349804. 11522.1   7
  -5   2   2 349466. 10958.0   3
   3  -5   2 378083. 11837.6   9
   2   3   2 343775. 10850.7   5
  -2   5   2 363717. 11133.3   5
   2   3   5 1454.48 535.814   8
   2   3   5 1378.78 344.353   7
   3  -5   5 963.726 466.573   6
   5  -3   5 1280.74 437.858   8
   3  -5   5 1657.49 621.460   9
   2   3   5 1113.30 456.136   5
  -2   5   5 1334.20 539.698   5
  -3  -2   5 1223.74 577.856   3
  -5   2   5 1333.78 468.659   3
   2   3   8 401985. 13094.4   8
   5  -3   8 448520. 13176.7   8
  -3  -2   8 439322. 13984.0   3
   3  -5   8 421002. 13336.6   6
  -5   2   8 437889. 13763.2   3
  -2   5   8 413792. 13347.9   3
   2   3  11 790.976 456.977   8
   5  -3  11 1243.29 490.020   8
   3  -5  11 1027.82 453.600   6
  -3  -2  11 466.406 543.503   3
  -5   2  11 447.593 415.425   3
  -2   5  11 904.814 487.941   3
   2   3  14 291559. 10466.3   8
   5  -3  14 261052. 9735.09   8
   3  -5  14 258765. 9418.98   6
  -5   2  14 276627. 10688.3   3
  -2   5  14 274870. 9876.39   3
   5  -2 -14 261376. 10033.8   2
   3   2 -14 300348. 10736.5   2
  -3   5 -14 281607. 10190.5   4
  -2  -3 -14 266663. 9939.70   1
  -5   3 -14 290476. 10996.8   4
   2  -5 -14 263182. 9835.83   1
  -3   5 -11 495.071 352.819   4
  -2  -3 -11 355.359 308.597   4
  -5   3 -11 1076.30 545.658   4
   2  -5 -11 866.766 453.576   1
  -2  -3 -11 696.499 503.020   1
   5  -2 -11 913.073 488.077   2
   3   2 -11 573.217 390.917   2
   5  -2  -8 455536. 11860.1   1
   5  -2  -8 423395. 13752.3   2
   3   2  -8 419388. 13184.0   2
  -2  -3  -8 383054. 12864.0   1
   2  -5  -8 403732. 13435.8   1
  -3   5  -8 444760. 12668.2   4
  -2  -3  -8 444948. 12857.3   4
  -5   3  -8 427918. 14100.0   4
  -3   5  -5 1587.64 386.411   4
  -5   3  -5 1961.26 704.829   4
  -2  -3  -5 2194.78 545.632   4
   3   2  -5 1809.44 395.471   8
  -2  -3  -5 1312.65 378.243   6
  -2  -3  -5 944.189 443.187   1
   5  -2  -5 1594.93 559.048   2
   2  -5  -5 808.841 415.782   1
   3   2  -5 1773.66 497.687   5
  -3   5  -5 807.728 328.007   5
   3   2  -5 1389.42 451.722   2
  -5   3  -5 1502.88 366.610   3
   2  -5  -5 894.352 371.517   9
  -5   3  -2 360953. 11547.6   4
  -2  -3  -2 373744. 10653.7   4
   3   2  -2 341137. 10328.9   8
   3   2  -2 339142. 10823.5   2
   5  -2  -2 368311. 11220.8   8
   2  -5  -2 350351. 11001.9   1
  -2  -3  -2 357116. 10928.1   6
  -5   3  -2 374254. 10742.6   3
   3   2  -2 336250. 10476.5   5
  -3   5  -2 358692. 10768.3   5
  -3   5  -2 378633. 9379.28   4
  -2  -3  -2 365647. 10223.1   1
   2  -5  -2 375785. 11396.2   9
   2  -5   1 1675.51 486.068   1
  -2  -3   1 2196.31 312.457   1
   3   2   1 1892.34 487.732   8
   5  -2   1 2314.66 594.028   8
   5  -2   1 1338.75 491.323   7
   2  -5   1 1555.70 535.003   6
  -2  -3   1 986.776 463.632   6
   3   2   1 2104.46 505.066   2
   3   2   1 1419.91 423.468   5
  -3   5   1 1463.97 441.658   5
  -5   3   1 2226.58 582.235   3
   3   2   4 523683. 15918.2   8
   5  -2   4 576483. 16155.8   8
   5  -2   4 549462. 16513.1   7
   3   2   4 554532. 15429.9   7
   2  -5   4 553518. 16497.2   6
  -2  -3   4 564029. 16630.4   6
  -5   3   4 585658. 16604.9   3
   3   2   4 543636. 15693.9   5
  -3   5   4 563730. 15908.3   5
   3   2   7 1690.90 553.213   8
   5  -2   7 1495.03 513.042   8
   3   2   7 1561.87 469.576   7
   2  -5   7 1137.97 538.662   6
  -2  -3   7 1824.86 791.225   6
  -2  -3   7 1090.44 562.520   3
  -5   3   7 1728.56 664.119   3
  -3   5   7 808.781 475.772   3
   3   2  10 308558. 10778.9   8
   5  -2  10 325491. 10820.5   8
  -2  -3  10 332214. 11562.9   3
   2  -5  10 319476. 11311.2   6
  -2  -3  10 329354. 12081.8   6
  -5   3  10 319133. 11349.3   3
  -3   5  10 322731. 11180.5   3
   3   2  13 2724.68 791.497   8
   5  -2  13 843.972 478.717   8
   2  -5  13 295.617 298.531   6
  -2  -3  13 2502.63 959.925   6
  -2  -3  13 818.394 654.575   3
  -5   3  13 17.5310 284.951   3
  -3   5  13 777.283 425.369   3
  -3   5  16 216910. 8578.96   3
  -4   5 -15 2934.77 896.841   4
   5  -1 -12 274277. 10224.6   2
   4   1 -12 280526. 10219.0   2
  -1  -4 -12 262979. 9775.66   1
  -4   5 -12 283293. 10148.1   4
  -5   4 -12 278192. 10833.0   4
   1  -5 -12 286462. 10114.4   1
  -1  -4  -9 4804.59 941.918   1
  -4   5  -9 4799.49 934.171   4
  -5   4  -9 4181.52 985.620   4
   1  -5  -9 3881.63 884.388   1
   5  -1  -9 5448.71 1103.76   2
   4   1  -9 4785.15 985.173   2
  -1  -4  -6 419367. 13312.0   1
   5  -1  -6 443764. 14128.4   2
   4   1  -6 426923. 13654.4   2
  -1  -4  -6 426479. 12654.7   6
  -5   4  -6 464289. 12498.4   3
   4   1  -6 459667. 12678.1   5
  -4   5  -6 468183. 13057.2   5
   1  -5  -6 399566. 13425.7   1
  -4   5  -6 458923. 13083.5   4
   1  -5  -6 472593. 12802.7   9
  -5   4  -6 450645. 14399.6   4
   5  -1  -3 6816.24 1118.45   2
   4   1  -3 5768.80 961.672   2
   4   1  -3 6711.54 906.702   8
   5  -1  -3 7693.13 1072.76   8
   1  -5  -3 5870.05 967.258   6
  -1  -4  -3 7951.70 1075.09   6
   1  -5  -3 6610.82 1001.45   1
  -5   4  -3 6966.57 949.524   3
   4   1  -3 5989.99 756.781   5
  -4   5  -3 7512.13 878.439   5
  -1  -4  -3 6939.71 912.994   1
  -4   5  -3 7698.07 861.159   4
  -5   4  -3 8632.98 1332.39   4
  -1  -4  -3 8397.95 856.222   4
  -5   4   0 417419. 12714.0   4
   4   1   0 400420. 12512.3   2
   4   1   0 407021. 12381.7   8
   5  -1   0 412529. 12676.6   8
   1  -5   0 421308. 12239.7   1
  -1  -4   0 428244. 11498.8   1
   1  -5   0 399264. 12831.8   6
  -1  -4   0 410882. 12751.8   6
  -5   4   0 424467. 12734.3   3
   4   1   0 408532. 11723.7   5
  -4   5   0 420073. 11924.1   5
  -4   5   0 408937. 13038.0   3
  -4   5   0 443953. 11315.1   4
   1  -5   3 6728.07 904.078   1
   4   1   3 6092.42 996.237   8
   5  -1   3 7043.73 1090.45   8
   5  -1   3 8138.23 1222.61   7
   4   1   3 8207.55 1080.84   7
   1  -5   3 5894.02 1105.67   6
  -1  -4   3 6658.80 1133.75   6
   4   1   3 6147.37 836.212   5
  -4   5   3 7090.62 951.598   5
  -5   4   3 7866.15 1214.98   3
  -4   5   3 8357.55 1326.43   3
   4   1   6 441160. 13884.1   8
   5  -1   6 446133. 13899.7   8
   5  -1   6 452388. 14068.4   7
   4   1   6 428202. 13303.1   7
   1  -5   6 451786. 14431.5   6
  -1  -4   6 457165. 14405.9   6
  -5   4   6 448723. 14381.6   3
  -4   5   6 483917. 15065.0   3
   4   1   9 4883.46 1020.94   8
   5  -1   9 5515.01 1067.12   8
   1  -5   9 5868.93 1178.81   6
  -1  -4   9 3431.92 1015.77   6
  -5   4   9 5459.77 1187.56   3
  -4   5   9 4751.75 1118.15   3
   4   1  12 262327. 9990.55   8
   5  -1  12 282582. 10269.3   8
   1  -5  12 290314. 10979.0   6
  -1  -4  12 272195. 10877.0   6
  -5   4  12 311983. 11217.1   3
  -4   5  12 288073. 10748.5   3
   1  -5  15 2631.58 955.220   6
  -5   5 -13 556.318 491.682   4
  -5   5 -10 260234. 9470.33   4
   0  -5 -10 257136. 9264.45   1
   0  -5  -7 143.430 292.591   1
  -5   5  -7 32.1628 217.974   4
   5   0  -7-12.6665 230.826   2
  -5   5  -7 226.872 231.044   3
   5   0  -4 500576. 15396.9   2
   5   0  -4 495611. 14674.4   8
   0  -5  -4 479771. 14586.1   6
   0  -5  -4 491210. 14706.9   1
  -5   5  -4 517844. 14662.0   3
  -5   5  -4 521359. 14843.7   4
  -5   5  -1 111.493 175.087   4
   5   0  -1 864.963 374.302   8
   0  -5  -1 413.413 267.875   1
   0  -5  -1 483.070 375.032   6
   5   0  -1 158.525 253.476   2
  -5   5  -1 436.342 332.119   3
  -5   5   2 275406. 8701.28   4
   0  -5   2 276183. 8262.49   1
   5   0   2 264406. 9275.28   8
   5   0   2 256626. 9232.35   7
   0  -5   2 252438. 9489.51   6
  -5   5   2 267403. 9573.09   3
   5   0   5 13.7188 169.462   8
   5   0   5-227.430 273.323   7
   0  -5   5 592.514 417.864   6
  -5   5   5 273.039 299.697   3
   5   0   8 425792. 13826.1   8
   0  -5   8 416724. 14226.5   6
  -5   5   8 438695. 14525.3   3
   5   0  11-120.751 234.898   8
   0  -5  11-478.578 452.667   6
  -5   5  11 123.487 333.626   3
   6  -6  -6 259480. 9531.70   1
   0   6  -6 241832. 9461.63   5
  -6   0  -6 270308. 10346.2   4
  -6   0  -3-222.119 288.086   4
   0   6  -3-56.3337 327.155   5
   6  -6  -3 5.03365 248.807   1
  -6   0   0 373299. 12494.0   3
   0   6   0 389836. 13023.5   5
   0   6   3 22.6756 374.950   5
  -6   0   3-138.609 546.642   3
  -6   0   6 227803. 9521.23   3
   0   6   6 236102. 9323.72   5
   6  -6   6 228629. 9266.09   9
   5  -6 -10 256846. 9473.56   1
  -1   6 -10 266616. 9630.64   2
  -5  -1 -10 261258. 9721.65   4
   6  -5  -7 2379.30 631.757   1
  -6   1  -7 2686.19 841.240   4
  -5  -1  -7 3565.08 971.663   4
   5  -6  -7 4171.07 956.213   1
   6  -5  -7 1903.13 643.657   7
   1   5  -7 2534.56 738.403   5
  -1   6  -7 3982.21 907.979   5
   1   5  -7 2708.53 743.867   2
  -6   1  -4 343548. 12137.3   4
  -5  -1  -4 353165. 11893.0   4
   6  -5  -4 339389. 11230.8   1
   5  -6  -4 359917. 11848.5   1
   6  -5  -4 343547. 11609.7   7
   1   5  -4 339444. 11520.5   5
  -1   6  -4 354301. 11709.7   5
   5  -6  -1 2892.80 889.133   9
   6  -5  -1 3233.87 943.722   7
  -5  -1  -1 3305.27 777.081   3
   1   5  -1 2810.09 755.727   5
  -1   6  -1 2609.58 769.663   5
  -6   1  -1 3603.15 891.292   3
   5  -6  -1 2916.95 814.859   1
   6  -5   2 319539. 10670.8   8
  -5  -1   2 336042. 11437.9   3
  -6   1   2 329018. 11510.4   3
   1   5   2 332736. 11373.2   5
  -1   6   2 340550. 11557.1   5
   5  -6   2 347422. 12123.8   9
   5  -6   5 3330.47 923.262   9
   6  -5   5 2480.08 635.425   8
   1   5   5 2594.07 773.688   5
  -1   6   5 2497.60 718.226   5
  -5  -1   5 2788.42 881.666   3
  -6   1   5 2603.03 917.465   3
  -1   6   8 284447. 9835.20   8
   1   5   8 252351. 9368.76   8
   6  -5   8 264663. 9211.21   8
  -5  -1   8 283324. 10723.3   3
  -6   1   8 276290. 10743.2   3
   5  -6   8 271450. 10246.4   9
  -1   6  11 2148.69 771.975   8
   1   5  11 2451.49 764.524   8
  -1   6  11 1962.36 596.402   3
  -4  -2 -11 5449.02 1084.90   4
   4  -6 -11 5756.04 1185.99   1
   6  -4 -11 6372.88 1182.81   2
   2   4 -11 7007.24 1263.04   5
  -2   6 -11 7450.34 1306.42   5
   2   4 -11 6235.50 1247.97   2
   6  -4  -8 273238. 9004.57   1
   2   4  -8 264456. 9573.65   2
   4  -6  -8 279815. 10148.8   1
   2   4  -8 288432. 10036.8   5
  -2   6  -8 286506. 10066.4   5
  -4  -2  -8 274880. 10051.2   4
  -6   2  -8 284902. 10840.0   4
  -6   2  -5 10182.1 1580.22   4
   6  -4  -5 10093.8 1222.85   1
  -4  -2  -5 10598.9 1455.81   4
   2   4  -5 10054.1 1267.90   2
   4  -6  -5 9725.38 1430.59   1
   6  -4  -5 11600.4 1581.62   7
  -2   6  -5 13491.4 1400.45   2
   2   4  -5 10358.1 1367.95   5
  -2   6  -5 11020.1 1469.10   5
   4  -6  -5 9208.99 1312.80   9
  -6   2  -2 400700. 13411.5   4
  -4  -2  -2 403456. 12826.6   4
   2   4  -2 412090. 12012.0   2
   4  -6  -2 414581. 13049.5   1
   6  -4  -2 394516. 13390.7   7
  -6   2  -2 447774. 12687.8   3
  -4  -2  -2 407438. 12439.0   6
   2   4  -2 381711. 12558.4   5
  -2   6  -2 407214. 12934.7   5
   4  -6  -2 391457. 13065.5   9
   4  -6   1 12168.7 1513.62   1
   2   4   1 12518.6 1155.67   2
   2   4   1 12925.1 1223.30   8
   6  -4   1 11774.6 1458.32   8
  -4  -2   1 11772.7 1498.38   3
   6  -4   1 12472.5 1723.82   7
  -6   2   1 11632.3 1444.93   3
   2   4   1 12033.5 1477.79   5
  -2   6   1 12820.5 1622.64   5
   4  -6   1 11961.9 1635.47   9
   2   4   4 326280. 10687.9   8
   6  -4   4 339615. 10879.0   8
  -4  -2   4 325272. 11274.7   3
  -6   2   4 324182. 11185.5   3
   2   4   4 314782. 10940.2   5
  -2   6   4 332380. 11270.5   5
   4  -6   4 334141. 11718.1   9
   2   4   7 8878.38 1273.77   8
   6  -4   7 9576.74 1322.30   8
  -4  -2   7 9849.63 1608.56   3
  -6   2   7 9139.52 1532.76   3
   2   4   7 9892.43 1441.70   5
  -2   6   7 9293.23 1403.41   5
   4  -6   7 11150.0 1646.80   9
  -2   6  10 283201. 10855.8   8
   2   4  10 272043. 10214.9   8
   6  -4  10 299906. 10356.6   8
  -4  -2  10 325241. 11670.0   3
  -6   2  10 313802. 11575.3   3
  -2   6  10 308373. 10755.2   3
   4  -6  10 290971. 10945.4   9
  -2   6  13 6029.83 1173.98   3
   6  -3 -12 228704. 9058.17   2
  -3  -3 -12 219741. 8571.66   1
   3   3 -12 250025. 8982.17   5
  -3  -3  -9 513.377 342.454   4
  -6   3  -9 745.014 469.301   4
   6  -3  -9 456.370 459.258   2
   3  -6  -9 1179.51 527.799   1
   3   3  -9 1231.43 490.243   5
  -3   6  -9 723.518 463.668   5
   3   3  -9-462.877 428.631   2
  -3  -3  -9 100.920 300.177   1
   6  -3  -6 272090. 10200.6   2
   3   3  -6 271603. 9481.43   2
  -3  -3  -6 275676. 8949.47   1
   3  -6  -6 270835. 9854.86   1
   3   3  -6 276527. 9452.20   5
  -3   6  -6 287252. 9760.44   5
  -6   3  -6 302554. 11031.3   4
  -3  -3  -6 297500. 9775.06   4
   3  -6  -6 285351. 9400.13   9
  -6   3  -3 932.644 460.240   4
  -3  -3  -3 222.625 223.657   4
   6  -3  -3 312.942 305.490   8
   3  -6  -3 779.091 412.783   1
   6  -3  -3 606.030 427.264   7
  -3  -3  -3 587.613 355.496   6
   3   3  -3 639.292 344.798   2
   3   3  -3 470.206 342.817   5
  -3   6  -3 472.980 346.360   5
  -6   3  -3 405.402 294.250   3
   3  -6  -3 419.846 343.168   9
   3   3   0 442622. 13312.1   2
   3   3   0 483095. 13311.0   8
   3  -6   0 473728. 14076.8   1
   6  -3   0 490785. 14306.2   8
   6  -3   0 458706. 14666.6   7
  -6   3   0 465254. 13709.3   3
  -3  -3   0 434591. 13851.8   6
   3   3   0 414697. 13503.6   5
  -3   6   0 467627. 14038.1   5
   3  -6   0 477407. 14549.2   9
   3   3   3 694.986 330.273   8
   6  -3   3 403.649 344.551   8
   6  -3   3 366.644 328.264   7
   3   3   3 322.062 226.434   7
  -3  -3   3 1301.23 631.787   6
   3   3   3 454.507 311.862   5
  -3   6   3 647.729 389.834   5
  -6   3   3 604.708 420.490   3
   3   3   6 263266. 9642.70   8
   6  -3   6 294569. 9901.25   8
  -3  -3   6 280054. 10150.1   3
   3  -6   6 275738. 10010.9   6
  -6   3   6 290365. 10260.1   3
  -3  -3   6 296838. 10719.2   6
   3   3   6 265568. 9493.18   5
  -3   6   6 277754. 9825.00   5
  -3   6   6 270164. 10121.2   3
   3   3   9 984.872 489.553   8
   6  -3   9 2391.81 676.278   8
   3  -6   9 461.630 388.116   6
  -3  -3   9 632.831 734.422   6
  -3  -3   9 9.12909 388.512   3
  -6   3   9 388.424 496.793   3
  -3   6   9 523.263 402.721   3
   3   3  12 241562. 9322.96   8
   6  -3  12 261908. 9574.98   8
   3  -6  12 237778. 9401.83   6
  -3   6  12 252128. 9629.53   3
   6  -2 -10 291399. 10547.5   2
   4   2 -10 292346. 10174.8   2
  -2  -4 -10 236796. 9217.59   1
   2  -6 -10 268854. 9999.33   1
   4   2 -10 286159. 9382.72   5
  -4   6 -10 270195. 9743.73   5
  -6   4 -10 260014. 10317.4   4
   6  -2  -7 12257.3 1749.05   2
  -2  -4  -7 10605.3 1318.74   1
   4   2  -7 8893.77 1337.71   2
   2  -6  -7 9383.74 1450.48   1
   4   2  -7 10215.2 1240.26   5
  -4   6  -7 12421.3 1460.17   5
  -6   4  -7 9913.00 1582.51   4
   2  -6  -7 10860.4 1213.53   9
   6  -2  -4 331636. 11631.7   2
   4   2  -4 329777. 11002.7   2
   4   2  -4 329065. 10100.1   8
   6  -2  -4 332500. 11002.6   8
  -2  -4  -4 329769. 10523.5   6
   2  -6  -4 304559. 10776.7   1
  -6   4  -4 359693. 10357.6   3
   4   2  -4 321649. 10192.6   5
  -4   6  -4 335077. 10520.5   5
  -2  -4  -4 340589. 10195.8   1
   2  -6  -4 341337. 10801.8   9
  -6   4  -4 339316. 12041.3   4
  -6   4  -1 10618.1 1494.82   4
  -2  -4  -1 15427.3 1384.07   4
   4   2  -1 9366.63 1265.96   2
   4   2  -1 12538.1 1342.70   8
   6  -2  -1 10905.1 1421.65   8
   2  -6  -1 12265.1 1462.85   1
   6  -2  -1 11935.1 1619.49   7
  -2  -4  -1 11519.3 1414.20   6
  -6   4  -1 13771.5 1512.37   3
   4   2  -1 12773.5 1327.94   5
  -4   6  -1 11801.1 1336.22   5
   2  -6  -1 10389.5 1414.37   9
   2  -6   2 387632. 12196.4   1
   4   2   2 394063. 12418.4   8
   6  -2   2 414978. 12903.9   8
   6  -2   2 407042. 13307.5   7
   4   2   2 386161. 12189.2   7
   2  -6   2 383123. 12793.0   6
  -2  -4   2 391082. 12825.8   6
  -6   4   2 401620. 12833.9   3
   4   2   2 401505. 12108.7   5
  -4   6   2 418458. 12492.3   5
  -4   6   2 406521. 13686.7   3
   4   2   5 9706.83 1402.35   8
   6  -2   5 8808.72 1345.59   8
   6  -2   5 9881.88 1525.35   7
   4   2   5 11174.7 1307.54   7
   2  -6   5 8726.04 1385.22   6
  -2  -4   5 10744.1 1579.28   6
  -6   4   5 10093.1 1519.78   3
  -4   6   5 11999.7 1753.13   3
   4   2   8 268021. 10072.0   8
   6  -2   8 284363. 10153.2   8
   2  -6   8 269492. 10341.4   6
  -2  -4   8 287044. 10753.5   6
  -6   4   8 292409. 10845.1   3
  -4   6   8 283476. 10751.0   3
   4   2  11 7138.62 1270.74   8
   6  -2  11 8210.50 1367.33   8
   2  -6  11 7367.05 1403.50   6
  -2  -4  11 9177.37 1681.35   6
  -4   6  11 6123.21 1275.40   3
  -6   5 -11 1709.04 843.191   4
  -1  -5 -11 938.502 511.358   1
   6  -1  -8 281080. 10283.2   2
   5   1  -8 268384. 9809.21   2
   1  -6  -8 264417. 9652.64   1
  -1  -5  -8 235626. 8965.81   1
  -6   5  -8 262122. 10105.5   4
  -6   5  -5 1985.61 683.522   4
   5   1  -5 2338.57 611.695   8
   6  -1  -5 2747.38 707.531   8
  -1  -5  -5 2345.94 628.260   6
   1  -6  -5 2328.97 692.002   1
   6  -1  -5 1993.12 684.652   2
   5   1  -5 2694.08 773.775   2
  -1  -5  -5 2345.96 660.886   1
   1  -6  -5 1647.26 527.067   9
  -5   6  -5 3025.69 765.263   3
   5   1  -2 317298. 10884.6   2
   5   1  -2 308305. 10406.8   8
   6  -1  -2 342605. 11067.1   8
   1  -6  -2 319920. 10505.4   1
   1  -6  -2 311315. 10763.9   6
  -1  -5  -2 316704. 10776.3   6
  -6   5  -2 321378. 10482.6   3
  -5   6  -2 323000. 11054.5   3
  -6   5  -2 343966. 11621.8   4
  -6   5   1 5119.71 1056.75   4
   5   1   1 3486.78 823.500   8
   6  -1   1 3305.62 837.034   8
   6  -1   1 3896.38 959.650   7
   1  -6   1 3136.19 840.953   6
  -1  -5   1 2933.80 815.731   6
  -6   5   1 2565.67 704.450   3
   1  -6   1 3212.56 681.694   1
  -5   6   1 1723.25 607.841   3
  -6   5   4 347244. 11337.2   4
   5   1   4 352188. 11847.1   8
   6  -1   4 363565. 11996.8   8
   6  -1   4 341633. 11862.4   7
   5   1   4 334772. 11372.0   7
   1  -6   4 332108. 11970.3   6
  -1  -5   4 348128. 12085.3   6
  -6   5   4 362061. 12283.0   3
  -5   6   4 356124. 12489.0   3
   5   1   7 4248.47 1026.25   8
   6  -1   7 2780.19 830.467   8
   6  -1   7 2707.68 836.106   7
   5   1   7 2828.08 689.060   7
   1  -6   7 2171.20 800.099   6
  -1  -5   7 2678.88 915.262   6
  -6   5   7 3596.74 1058.92   3
  -5   6   7 3826.70 1082.55   3
   0  -6  -9 760.890 497.376   1
   6   0  -6 240313. 9402.26   2
   0  -6  -6 220061. 8448.44   1
   6   0  -3 280.300 263.889   8
   0  -6  -3 117.783 201.625   1
   0  -6  -3 193.758 255.378   6
   6   0  -3-601.430 474.512   2
  -6   6  -3 33.8643 223.955   3
   6   0   0 350744. 11742.5   8
   6   0   0 341417. 11878.6   7
   0  -6   0 337180. 11681.8   6
  -6   6   0 344008. 11788.9   3
   6   0   3 144.045 344.378   8
   6   0   3 471.917 417.179   7
   0  -6   3-193.561 384.880   6
  -6   6   3-246.591 342.708   3
   6   0   6 269590. 10016.4   8
   6   0   6 232833. 9362.25   7
   0  -6   6 255959. 10216.2   6
  -6   6   6 261690. 10333.7   3
  -6  -1   1 9977.28 1565.08   3
  -7   1   4 196645. 8566.49   3
   7  -5  -6 240657. 9495.90   7
  -5  -2  -6 240067. 9499.77   4
   5  -7  -3 1149.78 563.943   9
  -7   2  -3 2715.77 879.679   4
  -5  -2  -3 576.164 408.563   4
   7  -5  -3 839.906 520.510   7
   2   5  -3 1132.42 558.204   5
  -2   7  -3 2227.30 750.991   5
   5  -7  -3 2372.99 732.066   1
  -7   2   0 308585. 11507.8   4
   7  -5   0 283655. 11305.6   7
  -5  -2   0 294164. 10561.4   6
   2   5   0 299808. 10710.1   5
  -2   7   0 303123. 11030.6   5
   5  -7   0 295970. 10989.7   9
   5  -7   3 1961.91 777.169   9
   7  -5   3 2550.53 742.921   8
  -5  -2   3 2051.45 781.849   3
   2   5   3 2619.27 801.173   5
  -2   7   3 1932.81 716.491   5
  -7   2   3 1690.18 699.910   3
   7  -5   6 242710. 9131.11   8
  -7   2   6 249699. 9978.50   3
   7  -4  -7 5324.05 1213.35   7
   3   4  -7 2631.20 767.233   5
  -3   7  -7 2664.82 793.526   5
   3   4  -7 3505.25 864.090   2
  -4  -3  -4 251231. 9131.66   4
   3   4  -4 248297. 8772.97   2
   4  -7  -4 246210. 9429.30   1
   7  -4  -4 215712. 9419.17   7
   3   4  -4 248710. 9077.03   5
  -3   7  -4 246283. 9247.20   5
   4  -7  -4 232758. 8995.44   9
  -7   3  -4 252010. 10163.3   4
  -7   3  -1 5117.74 1186.37   4
  -4  -3  -1 5216.15 1038.68   4
   7  -4  -1 3613.43 864.920   8
   7  -4  -1 4283.50 1073.38   7
  -4  -3  -1 6204.51 1097.57   6
   3   4  -1 4335.93 944.621   5
  -3   7  -1 4231.11 983.462   5
   4  -7  -1 4443.43 987.453   1
   4  -7  -1 3578.63 937.652   9
   7  -4   2 325965. 10933.8   8
   7  -4   2 321945. 11762.1   7
  -7   3   2 304104. 10605.4   3
  -4  -3   2 292042. 10665.3   6
   3   4   2 281338. 10364.7   5
  -3   7   2 301132. 10848.3   5
   4  -7   2 304176. 11074.9   9
   7  -4   5 3038.29 819.981   8
  -4  -3   5 4846.82 1225.44   6
   3   4   5 4613.03 1034.60   5
  -3   7   5 3673.93 940.420   5
  -7   3   5 4346.03 1052.84   3
   4  -7   5 3336.51 953.811   9
   3   4   8 199763. 7934.10   8
  -4   7  -8 238776. 9149.04   5
   3  -7  -5 3265.36 828.147   9
  -7   4  -5 3857.39 1114.12   4
   3  -7  -5 3303.28 870.167   1
   7  -3  -5 4007.92 1007.83   7
   4   3  -5 5255.54 1043.14   2
   4   3  -5 4045.01 878.100   5
  -4   7  -5 3886.97 878.186   5
  -7   4  -2 281901. 10943.8   4
   4   3  -2 274215. 9806.30   2
   7  -3  -2 303101. 10515.2   8
   3  -7  -2 280946. 10291.1   1
   7  -3  -2 297811. 11092.8   7
  -3  -4  -2 290780. 9893.33   6
   4   3  -2 285983. 9782.81   5
  -4   7  -2 293507. 10136.4   5
   3  -7  -2 297467. 10399.7   9
  -7   4   1 3470.08 991.144   4
   7  -3   1 3718.36 917.019   8
   7  -3   1 3898.31 973.875   7
  -3  -4   1 3857.35 979.235   6
   4   3   1 4459.92 915.834   5
  -4   7   1 4427.19 915.494   5
   3  -7   1 2951.85 808.175   1
  -7   4   1 4314.32 1002.70   3
   3  -7   1 3512.31 926.446   9
   4   3   4 230526. 8799.54   8
   7  -3   4 257295. 9371.97   8
   7  -3   4 240570. 9742.98   7
  -3  -4   4 246963. 9371.80   6
  -7   4   4 214432. 8890.52   3
   4   3   4 217423. 8407.64   5
  -4   7   4 235769. 8878.09   5
  -4   7   4 248428. 9814.00   3
   3  -7   4 230944. 9234.92   9
   4   3   7 3397.39 912.831   8
   2  -7  -6 231423. 9096.34   1
  -5   7  -6 234704. 9289.00   3
  -7   5  -6 228678. 9658.78   4
  -5   7  -3 1667.58 732.162   3
   2  -7  -3 1128.66 544.653   1
  -7   5  -3 1588.31 730.340   4
   7  -2  -3 1413.74 556.836   8
   7  -2  -3 2053.62 747.384   7
  -2  -5  -3 1528.23 591.148   6
   5   2  -3 2532.95 777.152   2
   2  -7  -3 1356.05 555.266   9
  -7   5   0 278214. 10601.9   4
   2  -7   0 271625. 9736.38   1
   5   2   0 270370. 9667.54   8
   7  -2   0 302791. 10587.1   8
   7  -2   0 297933. 10994.3   7
  -2  -5   0 257499. 9859.69   6
  -7   5   0 280575. 9926.55   3
  -5   7   0 294645. 11104.9   3
   2  -7   0 272170. 10096.7   9
   5   2   3 1107.38 474.024   8
   7  -2   3 919.979 471.545   8
   7  -2   3 1392.87 609.975   7
   5   2   3 1009.45 490.383   7
   2  -7   3 1847.28 734.469   6
  -2  -5   3 1203.25 611.072   6
  -7   5   3 2301.61 794.558   3
  -5   7   3 1167.13 640.239   3
   5   2   6 235108. 9362.44   8
   6   1  -1 10199.8 1505.46   8
  -1  -6  -1 7126.10 1284.69   6
  -7   6  -1 9538.43 1420.64   3
  -6   7  -1 9940.82 1570.58   3
   6   1   2 277951. 10281.7   8
   6   1   2 276379. 10237.3   7
  -7   6   2 270833. 10314.7   3
   0   0   0    0.00    0.00   0
TITL LNT10_red_abs_2016 in R3c
REM R3c (#161 in standard setting)
CELL 0.71073   5.146971   5.146971  13.833746  90.0000  90.0000 120.0000
ZERR    6.00   0.000174   0.000174   0.000584   0.0000   0.0000   0.0000
LATT -3
SYMM -y, x-y, z
SYMM -x+y,-x, z
SYMM -y,-x, z+1/2
SYMM -x+y, y, z+1/2
SYMM  x, x-y, z+1/2
SFAC Li O Nb Ta
UNIT 6.00 18.00 2.82 3.18
TREF
HKLF 4
END
;
_shelx_hkl_checksum              26146
_shelx_res_file
;
    lnt10_red_abs_2016.res created by SHELXL-2014/7
TITL LNT10_red_abs_2016 in R3c
REM R3c (#161 in standard setting)
CELL 0.71073 5.147 5.147 13.834 90 90 120
ZERR 6 0.001 0.001 0.005 0 0 0
LATT -3
SYMM -Y,+X-Y,+Z
SYMM +Y-X,-X,+Z
SYMM -Y,-X,0.5+Z
SYMM +Y-X,+Y,0.5+Z
SYMM +X,+X-Y,0.5+Z
SFAC Li O Nb Ta
UNIT 6 18 2.82 3.18
EADP Ta Nb
EXYZ Ta Nb
L.S. 10
PLAN  25
fmap 2
acta
MERG 2
REM <olex2.extras>
REM <HklSrc "%.\\LNT10_red_abs_2016.hkl">
REM </olex2.extras>
WGHT    0.045200
EXTI    0.149885
FVAR       5.98033
TA    4    0.000000    0.000000    0.998257    10.17666    0.01147    0.01147 =
         0.01239    0.00000    0.00000    0.00573
NB    3    0.000000    0.000000    0.998257    10.15667    0.01147    0.01147 =
         0.01239    0.00000    0.00000    0.00573
O     2    0.951913    0.657193    0.932054    11.00000    0.00884    0.00818 =
         0.01093   -0.00155   -0.00093    0.00450
LI    1    0.000000    0.000000    0.718432    10.33333    0.00288    0.00288 =
         0.01614    0.00000    0.00000    0.00144
HKLF 4
REM  LNT10_red_abs_2016 in R3c
REM R1 =  0.0235 for     255 Fo > 4sig(Fo)  and  0.0235 for all     255 data
REM     17 parameters refined using      1 restraints
END
WGHT      0.0452      0.0000
REM Highest difference peak  1.613,  deepest hole -0.951,  1-sigma level  0.372
Q1    1   0.1258  0.0638  1.0302  11.00000  0.05    1.61
Q2    1   0.0722 -0.0572  0.9674  11.00000  0.05    1.54
Q3    1   0.7118  0.6590  0.8953  11.00000  0.05    0.94
Q4    1   1.1338  0.8371  0.9443  11.00000  0.05    0.41
Q5    1   0.0000  0.0000  0.6741  10.33333  0.05    0.40
Q6    1   0.0000  0.0000  0.8238  10.33333  0.05    0.35
Q7    1   0.9634  0.5075  0.8851  11.00000  0.05    0.33
Q8    1   1.0863  0.7418  0.9863  11.00000  0.05    0.31
Q9    1  -0.0785 -0.0473  0.7779  11.00000  0.05    0.31
Q10   1   1.0067  0.4971  0.9993  11.00000  0.05    0.29
Q11   1  -0.1235 -0.2139  0.7595  11.00000  0.05    0.27
Q12   1  -0.0092 -0.1453  0.6989  11.00000  0.05    0.26
Q13   1   0.8988  0.6543  1.0043  11.00000  0.05    0.24
Q14   1  -0.2123 -0.1136  0.7362  11.00000  0.05    0.23
Q15   1  -0.1432 -0.1585  0.6962  11.00000  0.05    0.23
Q16   1   1.1721  0.6652  0.9668  11.00000  0.05    0.21
Q17   1   0.0000  0.0000  0.8858  10.33333  0.05    0.20
Q18   1   0.7613  0.6575  1.0045  11.00000  0.05    0.17
Q19   1   0.8963  0.6701  0.8270  11.00000  0.05    0.16
Q20   1   0.8678  0.4959  0.9769  11.00000  0.05    0.16
Q21   1  -0.1594 -0.0212  0.8020  11.00000  0.05    0.16
Q22   1   0.0000  0.0000  0.6103  10.33333  0.05    0.14
Q23   1   1.0692  0.9258  0.8535  11.00000  0.05    0.07
;
_shelx_res_checksum              24624
loop_
_space_group_symop_operation_xyz
'x, y, z'
'-y, x-y, z'
'-x+y, -x, z'
'-y, -x, z+1/2'
'-x+y, y, z+1/2'
'x, x-y, z+1/2'
'x+2/3, y+1/3, z+1/3'
'-y+2/3, x-y+1/3, z+1/3'
'-x+y+2/3, -x+1/3, z+1/3'
'-y+2/3, -x+1/3, z+5/6'
'-x+y+2/3, y+1/3, z+5/6'
'x+2/3, x-y+1/3, z+5/6'
'x+1/3, y+2/3, z+2/3'
'-y+1/3, x-y+2/3, z+2/3'
'-x+y+1/3, -x+2/3, z+2/3'
'-y+1/3, -x+2/3, z+7/6'
'-x+y+1/3, y+2/3, z+7/6'
'x+1/3, x-y+2/3, z+7/6'
loop_
_atom_site_type_symbol
_atom_site_label
_atom_site_fract_x
_atom_site_fract_y
_atom_site_fract_z
_atom_site_U_iso_or_equiv
_atom_site_adp_type
_atom_site_calc_flag
_atom_site_occupancy
Ta Ta 0.0000 0.0000 0.9983(6) 0.0118(4) Uani d 0.53
Nb Nb 0.0000 0.0000 0.9983(6) 0.0118(4) Uani d 0.47
O O 0.9519(5) 0.6572(7) 0.9321(7) 0.0092(7) Uani d 1
Li Li 0.0000 0.0000 0.718(4) 0.007(7) Uani d 1
loop_
_atom_site_aniso_label
_atom_site_aniso_U_11
_atom_site_aniso_U_22
_atom_site_aniso_U_33
_atom_site_aniso_U_12
_atom_site_aniso_U_13
_atom_site_aniso_U_23
Ta 0.0115(4) 0.0115(4) 0.0124(5) 0.0057(2) 0.000 0.000
Nb 0.0115(4) 0.0115(4) 0.0124(5) 0.0057(2) 0.000 0.000
O 0.0088(16) 0.0082(11) 0.0109(11) 0.0045(17) -0.0009(18) -0.0015(6)
Li 0.003(9) 0.003(9) 0.016(15) 0.001(4) 0.000 0.000
loop_
_atom_type_symbol
_atom_type_description
_atom_type_scat_dispersion_real
_atom_type_scat_dispersion_imag
_atom_type_scat_source
Li Li -0.0003 0.0001 'International Tables Vol C Tables 4.2.6.8 and 6.1.1.4'
O O 0.0106 0.0060 'International Tables Vol C Tables 4.2.6.8 and 6.1.1.4'
Nb Nb -2.0727 0.6215 'International Tables Vol C Tables 4.2.6.8 and 6.1.1.4'
Ta Ta -0.7052 6.5227 'International Tables Vol C Tables 4.2.6.8 and 6.1.1.4'
loop_
_exptl_crystal_face_index_h
_exptl_crystal_face_index_k
_exptl_crystal_face_index_l
_exptl_crystal_face_perp_dist
-1 -4 -13 0.0331
4 0 -14 0.0525
5 -3 15 0.0603
-5 6 -8 0.0612
-5 1 12 0.0470
2 3 14 0.0377
2 -6 -9 0.0509
0 -5 9 0.0762
5 -5 12 0.0655
6 -5 -10 0.0702
loop_
_geom_angle_atom_site_label_1
_geom_angle_atom_site_label_2
_geom_angle_atom_site_label_3
_geom_angle_site_symmetry_1
_geom_angle_site_symmetry_3
_geom_angle
_geom_angle_publ_flag
O Ta O 1_445 3_565 98.5(4) n
O Ta O 17_544 16_554 81.0(4) n
O Ta O 17_544 18_444 81.0(4) n
O Ta O 2_655 16_554 167.5(5) n
O Ta O 3_565 18_444 167.5(5) n
O Ta O 2_655 18_444 88.88(9) n
O Ta O 1_445 17_544 167.5(5) n
O Ta O 1_445 2_655 98.5(4) n
O Ta O 3_565 17_544 88.88(10) n
O Ta O 1_445 18_444 90.21(10) n
O Ta O 2_655 17_544 90.21(10) n
O Ta O 3_565 2_655 98.5(4) n
O Ta O 1_445 16_554 88.88(10) n
O Ta O 3_565 16_554 90.22(10) n
O Ta O 16_554 18_444 81.0(4) n
O Ta Li 16_554 7_445 41.7(7) n
O Ta Li 2_655 7 48.2(8) n
O Ta Li 3_565 7_445 103.1(4) n
O Ta Li 3_565 7_455 48.2(8) n
O Ta Li 18_444 7 41.7(7) n
O Ta Li 17_544 7_455 41.7(7) n
O Ta Li 1_445 16_554 119.3(8) n
O Ta Li 17_544 4 48.6(2) n
O Ta Li 17_544 7 76.2(6) n
O Ta Li 16_554 4 48.6(2) n
O Ta Li 2_655 16_444 119.3(8) n
O Ta Li 18_444 4 48.6(2) n
O Ta Li 16_554 16_444 72.6(7) n
O Ta Li 1_445 7 103.1(4) n
O Ta Li 3_565 7 142.3(5) n
O Ta Li 1_445 4 119.0(3) n
O Ta Li 17_544 7_445 120.4(9) n
O Ta Li 3_565 4 119.0(3) n
O Ta Li 2_655 16_554 32.83(17) n
O Ta Li 2_655 4 119.0(3) n
O Ta Li 1_445 7_445 48.2(8) n
O Ta Li 3_565 16_444 32.83(18) n
O Ta Li 1_445 7_455 142.3(5) n
O Ta Li 17_544 16_444 112.4(5) n
O Ta Li 16_554 7 120.4(9) n
O Ta Li 18_444 16_444 147.5(5) n
O Ta Li 2_655 7_455 103.1(4) n
O Ta Li 3_565 16_554 71.0(3) n
O Ta Li 2_655 7_445 142.3(5) n
O Ta Li 17_544 16_554 72.6(7) n
O Ta Li 16_554 7_455 76.2(6) n
O Ta Li 18_444 16_554 112.4(5) n
O Ta Li 16_554 16_554 147.5(4) n
O Ta Li 18_444 7_445 76.2(6) n
O Ta Li 1_445 16_444 71.0(3) n
O Ta Li 18_444 7_455 120.4(9) n
Li Ta Li 4 16_444 117.8(8) n
Li Ta Li 4 16_554 117.8(8) n
Li Ta Li 7 7_445 114.4(7) n
Li Ta Li 4 7_455 76.0(9) n
Li Ta Li 4 7_445 76.0(9) n
Li Ta Li 7_455 16_554 71.54(19) n
Li Ta Li 7_455 16_444 71.54(19) n
Li Ta Li 7 16_444 166.2(17) n
Li Ta Li 7_445 7_455 114.4(7) n
Li Ta Li 7 16_554 71.54(18) n
Li Ta Li 16_444 16_554 100.0(10) n
Li Ta Li 7_445 16_444 71.54(18) n
Li Ta Li 4 7 76.0(9) n
Li Ta Li 7 7_455 114.4(7) n
Li Ta Li 7_445 16_554 166.2(17) n
Ta O Ta 1_665 10_554 140.7(2) n
Ta O Nb 10_554 10_554 0.0000(10) n
Ta O Nb 1_665 10_554 140.7(2) n
Ta O Li 10_554 7 87.8(9) n
Ta O Li 1_665 16_654 117.1(6) n
Ta O Li 1_665 7 93.8(8) n
Nb O Ta 1_665 1_665 0.0 n
Nb O Ta 1_665 10_554 140.7 n
Nb O Nb 1_665 10_554 140.7(2) n
Nb O Li 10_554 7 87.8(9) n
Nb O Li 1_665 16_654 117.1(6) n
Nb O Li 1_665 7 93.8(8) n
Li O Ta 16_654 10_554 95.2(10) n
Li O Nb 16_654 10_554 95.2(10) n
Li O Li 16_654 7 120.4(10) n
Ta Li Ta 13_444 13_554 114.4(7) n
Ta Li Ta 4_554 13_444 76.0(9) n
Ta Li Ta 4_554 13_554 76.0(9) n
Ta Li Nb 13_554 13_554 0.0(3) n
Ta Li Nb 13_444 13_554 114.4(7) n
Ta Li Nb 4_554 13_444 76.0(9) n
Ta Li Nb 13_444 13_444 0.0 n
Ta Li Nb 4_554 13_554 76.0(9) n
Ta Li Nb 4_554 4_554 0.0000(10) n
Nb Li Ta 13_444 13_554 114.4 n
Nb Li Ta 4_554 13_554 76.0 n
Nb Li Ta 4_554 13_444 76.0 n
Nb Li Nb 4_554 13_554 76.0(9) n
Nb Li Nb 4_554 13_444 76.0(9) n
Nb Li Nb 13_444 13_554 114.4(7) n
O Li Ta 14_544 13_444 38.0(2) n
O Li Ta 15_554 13_444 84.1(9) n
O Li Ta 11_544 4_554 108.5(13) n
O Li Ta 13_444 13_554 38.0(2) n
O Li Ta 12_344 4_554 108.5(13) n
O Li Ta 11_544 13_554 95.56(12) n
O Li Ta 12_344 13_554 149.7(3) n
O Li Ta 14_544 4_554 43.6(9) n
O Li Ta 10_564 4_554 108.5(13) n
O Li Ta 15_554 4_554 43.6(9) n
O Li Ta 10_564 13_554 43.1(4) n
O Li Ta 13_444 13_444 111.4(15) n
O Li Ta 13_444 4_554 43.6(9) n
O Li Ta 14_544 13_554 84.1(9) n
O Li Ta 10_564 13_444 95.56(11) n
O Li Ta 11_544 13_444 149.7(3) n
O Li Ta 15_554 13_554 111.4(15) n
O Li Ta 12_344 13_444 43.1(4) n
O Li Nb 10_564 13_444 95.56(11) n
O Li Nb 15_554 4_554 43.6(9) n
O Li Nb 11_544 4_554 108.5(13) n
O Li Nb 12_344 13_444 43.1(4) n
O Li Nb 13_444 13_554 38.0(2) n
O Li Nb 15_554 13_554 111.4(15) n
O Li Nb 13_444 4_554 43.6(9) n
O Li Nb 11_544 13_444 149.7(3) n
O Li Nb 15_554 13_444 84.1(9) n
O Li Nb 14_544 13_554 84.1(9) n
O Li Nb 12_344 4_554 108.5(13) n
O Li Nb 14_544 13_444 38.0(2) n
O Li Nb 10_564 4_554 108.5(13) n
O Li Nb 14_544 4_554 43.6(9) n
O Li Nb 12_344 13_554 149.7(3) n
O Li Nb 13_444 13_444 111.4(15) n
O Li Nb 11_544 13_554 95.56(12) n
O Li Nb 10_564 13_554 43.1(4) n
O Li O 12_344 13_444 151(2) n
O Li O 12_344 10_564 110.4(13) n
O Li O 10_564 14_544 88.9(6) n
O Li O 13_444 15_554 73.3(14) n
O Li O 10_564 11_544 110.4(13) n
O Li O 12_344 14_544 80.3(6) n
O Li O 14_544 15_554 73.3(14) n
O Li O 10_564 13_444 80.3(6) n
O Li O 12_344 15_554 88.9(6) n
O Li O 12_344 11_544 110.4(13) n
O Li O 10_564 15_554 151(2) n
O Li O 11_544 13_444 88.9(6) n
O Li O 11_544 15_554 80.3(6) n
O Li O 11_544 14_544 151(2) n
O Li O 14_544 13_444 73.3(14) n
loop_
_geom_bond_atom_site_label_1
_geom_bond_atom_site_label_2
_geom_bond_site_symmetry_2
_geom_bond_distance
_geom_bond_publ_flag
Ta O 1_445 1.891(6) n
Ta O 2_655 1.891(6) n
Ta O 3_565 1.891(6) n
Ta O 16_554 2.102(8) n
Ta O 17_544 2.102(8) n
Ta O 18_444 2.102(8) n
Ta Li 4 3.05(5) n
Ta Li 7_445 3.062(12) n
Ta Li 7_455 3.062(12) n
Ta Li 16_444 3.36(2) n
Ta Li 7 3.062(12) n
Ta Li 16_554 3.36(2) n
O Ta 1_665 1.891(6) n
O Ta 10_554 2.102(8) n
O Nb 10_554 2.102(8) n
O Nb 1_665 1.891(6) n
O Li 7 2.29(4) n
O Li 16_654 2.045(16) n
Li Ta 13_554 3.062(12) n
Li Ta 4_554 3.05(5) n
Li Ta 13_444 3.062(12) n
Li Nb 13_444 3.062(12) n
Li Nb 13_554 3.062(12) n
Li Nb 4_554 3.05(5) n
Li O 10_564 2.045(16) n
Li O 14_544 2.29(4) n
Li O 11_544 2.045(16) n
Li O 12_344 2.045(16) n
Li O 15_554 2.29(4) n
Li O 13_444 2.29(4) n
