#------------------------------------------------------------------------------
#$Date: 2021-05-18 19:36:50 +0300 (Tue, 18 May 2021) $
#$Revision: 265307 $
#$URL: file:///home/coder/svn-repositories/cod/cif/3/00/01/3000100.cif $
#------------------------------------------------------------------------------
#
# This file is available in the Crystallography Open Database (COD),
# http://www.crystallography.net/
#
# All data on this site have been placed in the public domain by the
# contributors.
#
data_3000100
loop_
_publ_author_name
'Bubnova, Rimma'
'Volkov, Sergey'
'Barbara Albert'
'Filatov, Stanislav'
_publ_section_title
;
 Borates--Crystal Structures of Prospective Nonlinear Optical Materials:
 High Anisotropy of the Thermal Expansion Caused by Anharmonic Atomic
 Vibrations
;
_journal_issue                   3
_journal_name_full               Crystals
_journal_page_first              93
_journal_paper_doi               10.3390/cryst7030093
_journal_volume                  7
_journal_year                    2017
_chemical_formula_sum            'B2 Ba O4'
_chemical_formula_weight         223
_space_group_IT_number           161
_symmetry_cell_setting           trigonal
_symmetry_Int_Tables_number      161
_symmetry_space_group_name_Hall  'R 3 -2"c'
_symmetry_space_group_name_H-M   'R 3 c :H'
_cell_angle_alpha                90
_cell_angle_beta                 90
_cell_angle_gamma                120
_cell_formula_units_Z            18
_cell_length_a                   12.5806(14)
_cell_length_b                   12.5806(14)
_cell_length_c                   12.7947(18)
_cell_measurement_temperature    323
_cell_volume                     1753.7(4)
_diffrn_ambient_temperature      323
_diffrn_measured_fraction_theta_full 0.98
_diffrn_measured_fraction_theta_max 0.98
_diffrn_measurement_device       'four-circle diffractometer'
_diffrn_measurement_device_type  'IPDS Stoe'
_diffrn_measurement_method       '??integration method??'
_diffrn_radiation_monochromator  graphite
_diffrn_radiation_probe          x-ray
_diffrn_radiation_source         'X-ray tube'
_diffrn_radiation_type           'Mo K\a'
_diffrn_radiation_wavelength     0.71073
_diffrn_reflns_av_R_equivalents  0.0819
_diffrn_reflns_av_unetI/netI     0.0043
_diffrn_reflns_limit_h_max       16
_diffrn_reflns_limit_h_min       -17
_diffrn_reflns_limit_k_max       17
_diffrn_reflns_limit_k_min       -17
_diffrn_reflns_limit_l_max       17
_diffrn_reflns_limit_l_min       -17
_diffrn_reflns_number            5166
_diffrn_reflns_theta_full        29.2
_diffrn_reflns_theta_max         29.2
_diffrn_reflns_theta_min         3.24
_exptl_absorpt_coefficient_mu    10.052
_exptl_crystal_density_diffrn    3.7999
_exptl_crystal_F_000             1764
_refine_diff_density_max         0.92
_refine_diff_density_min         -0.78
_refine_ls_abs_structure_details
'  516 of Friedel pairs used in the refinement'
_refine_ls_extinction_coef       3800(300)
_refine_ls_extinction_method
'B-C type 1 Gaussian isotropic (Becker & Coppens, 1974)'
_refine_ls_goodness_of_fit_gt    3.30
_refine_ls_goodness_of_fit_ref   3.28
_refine_ls_number_constraints    1
_refine_ls_number_parameters     65
_refine_ls_number_reflns         1043
_refine_ls_number_restraints     0
_refine_ls_R_factor_all          0.0296
_refine_ls_R_factor_gt           0.0293
_refine_ls_shift/su_max          0.0451
_refine_ls_shift/su_mean         0.0076
_refine_ls_structure_factor_coef F
_refine_ls_weighting_details     w=1/(\s^2^(F)+0.0001F^2^)
_refine_ls_weighting_scheme      sigma
_refine_ls_wR_factor_gt          0.0382
_refine_ls_wR_factor_ref         0.0383
_reflns_number_gt                1028
_reflns_number_total             1043
_reflns_threshold_expression     I>3\s(I)
_cod_data_source_file            b-BaB2O4_323K.cif
_cod_data_source_block           I
_cod_depositor_comments
;
The following automatic conversions were performed:

'_diffrn_radiation_probe' value 'X-ray' changed to 'x-ray' according
to the built-in table from CIF Core dictionary named 'cif_core.dic'
version 2.4.1 from 2010-06-29.

Automatic conversion script
Id: cif_fix_values 4624 2016-04-14 12:54:50Z antanas 

 Released structure into public domain as published material.

 Antanas Vaitkus,
 2021-05-18
;
_cod_original_sg_symbol_Hall     'R 3;-2"c'
_cod_original_sg_symbol_H-M      'R 3 c'
_cod_original_formula_sum        'B2 Ba1 O4'
_cod_database_code               3000100
loop_
_space_group_symop_id
_space_group_symop_operation_xyz
1 x,y,z
2 -y,x-y,z
3 -x+y,-x,z
4 -y,-x,z+1/2
5 -x+y,y,z+1/2
6 x,x-y,z+1/2
7 x+2/3,y+1/3,z+1/3
8 -y+2/3,x-y+1/3,z+1/3
9 -x+y+2/3,-x+1/3,z+1/3
10 -y+2/3,-x+1/3,z+5/6
11 -x+y+2/3,y+1/3,z+5/6
12 x+2/3,x-y+1/3,z+5/6
13 x+1/3,y+2/3,z+2/3
14 -y+1/3,x-y+2/3,z+2/3
15 -x+y+1/3,-x+2/3,z+2/3
16 -y+1/3,-x+2/3,z+1/6
17 -x+y+1/3,y+2/3,z+1/6
18 x+1/3,x-y+2/3,z+1/6
loop_
_atom_site_label
_atom_site_type_symbol
_atom_site_fract_x
_atom_site_fract_y
_atom_site_fract_z
_atom_site_adp_type
_atom_site_U_iso_or_equiv
_atom_site_site_symmetry_multiplicity
_atom_site_occupancy
_atom_site_calc_flag
_atom_site_refinement_flags
_atom_site_disorder_assembly
_atom_site_disorder_group
B1 B 0.0214(7) -0.1014(7) 0.2425(6) Uani 0.017(3) 18 1 d . . .
B2 B 0.0422(7) -0.0874(7) 0.5030(6) Uani 0.019(3) 18 1 d . . .
Ba1 Ba 0.36073(3) 0.35763(3) 0.37993(2) Uani 0.01553(17) 18 1 d . . .
O1 O -0.0410(5) 0.0830(5) 0.5007(5) Uani 0.024(2) 18 1 d . . .
O2 O 0.1636(5) 0.2494(5) 0.5091(5) Uani 0.0238(19) 18 1 d . . .
O3 O 0.1183(5) 0.0214(5) 0.2441(5) Uani 0.024(2) 18 1 d . . .
O4 O 0.0457(5) 0.2380(4) 0.7349(4) Uani 0.0212(18) 18 1 d . . .
loop_
_atom_site_aniso_label
_atom_site_aniso_type_symbol
_atom_site_aniso_U_11
_atom_site_aniso_U_22
_atom_site_aniso_U_33
_atom_site_aniso_U_12
_atom_site_aniso_U_13
_atom_site_aniso_U_23
B1 B 0.014(3) 0.015(3) 0.022(3) 0.008(3) 0.001(3) 0.003(3)
B2 B 0.014(3) 0.016(3) 0.026(3) 0.007(3) -0.002(3) -0.005(3)
Ba1 Ba 0.0114(2) 0.0120(2) 0.0233(2) 0.00596(13) -0.00061(19) -0.0001(2)
O1 O 0.015(2) 0.013(2) 0.047(3) 0.0087(19) 0.001(2) 0.001(2)
O2 O 0.018(2) 0.014(2) 0.039(3) 0.0076(18) 0.007(2) 0.003(2)
O3 O 0.011(2) 0.012(2) 0.048(3) 0.0060(19) 0.000(2) -0.001(2)
O4 O 0.020(2) 0.013(2) 0.029(2) 0.0078(19) 0.0020(18) -0.0020(19)
loop_
_atom_type_symbol
_atom_type_scat_dispersion_real
_atom_type_scat_dispersion_imag
_atom_type_scat_source
B 0.0013 0.0007 'International Tables Vol C tables 4.2.6.8 and 6.1.1.1'
Ba -0.3244 2.2819 'International Tables Vol C tables 4.2.6.8 and 6.1.1.1'
O 0.0106 0.0060 'International Tables Vol C tables 4.2.6.8 and 6.1.1.1'
loop_
_geom_angle_atom_site_label_1
_geom_angle_atom_site_label_2
_geom_angle_atom_site_label_3
_geom_angle_site_symmetry_1
_geom_angle_site_symmetry_2
_geom_angle_site_symmetry_3
_geom_angle
B2 O1 B2 2_555 . 3_555 124.5(10)
B1 O3 B1 . . 2_555 123.9(7)
loop_
_geom_bond_atom_site_label_1
_geom_bond_atom_site_label_2
_geom_bond_site_symmetry_1
_geom_bond_site_symmetry_2
_geom_bond_distance
O1 B2 . 2_555 1.417(11)
O1 B2 . 3_555 1.404(9)
O2 B2 . 2_555 1.323(11)
O3 B1 . . 1.410(8)
O3 B1 . 2_555 1.395(15)
O4 B1 . 6_555 1.327(14)
loop_
_refln_index_h
_refln_index_k
_refln_index_l
_refln_F_squared_calc
_refln_F_squared_meas
_refln_F_squared_sigma
_refln_observed_status
-1 2 0 67136.90 81611.60 257.55 o
-2 4 0 178933.00 140794.00 712.14 o
-1 5 0 145710.00 118363.00 508.90 o
-4 5 0 151848.00 181487.00 264.70 o
-3 6 0 224742.00 215190.00 369.32 o
0 6 0 151109.00 141474.00 331.95 o
-6 6 0 149011.00 170116.00 234.04 o
-2 7 0 68188.60 70945.50 146.24 o
-5 7 0 70678.30 73495.60 119.61 o
-4 8 0 73523.10 75887.20 127.83 o
-1 8 0 22276.50 19699.30 109.89 o
-7 8 0 20993.80 23864.20 73.86 o
-3 9 0 128807.00 124132.00 172.60 o
-6 9 0 128192.00 136119.00 146.87 o
0 9 0 60363.00 51822.90 204.29 o
-9 9 0 58520.80 62454.60 138.88 o
-5 10 0 485.67 667.01 64.02 o
-2 10 0 162.17 125.93 82.58 <
-8 10 0 44.95 780.28 59.86 o
-4 11 0 16848.70 15230.60 89.97 o
-7 11 0 16323.00 16771.90 83.66 o
-1 11 0 7059.49 6174.95 93.37 o
-10 11 0 6815.93 7468.35 64.31 o
-6 12 0 9031.33 9091.79 81.05 o
-3 12 0 4954.27 5700.76 97.36 o
-9 12 0 5584.72 5224.61 66.32 o
0 12 0 1246.20 1032.91 136.34 o
-12 12 0 1347.03 1572.19 90.90 o
-5 13 0 2681.69 2835.14 86.85 o
-8 13 0 2693.37 2903.40 78.58 o
-2 13 0 1028.45 1235.17 97.08 o
-11 13 0 1194.02 1086.57 74.37 o
-7 14 0 17053.60 17051.10 91.82 o
-4 14 0 10959.90 10119.40 99.76 o
-10 14 0 11104.00 10822.80 76.90 o
-1 14 0 1656.84 1969.05 117.77 o
-13 14 0 1948.72 2070.65 82.66 o
-6 15 0 938.17 898.41 92.94 o
-9 15 0 861.64 1160.65 78.48 o
-3 15 0 3597.27 3297.14 101.36 o
-12 15 0 3640.70 3460.64 82.74 o
-8 16 0 11779.70 11399.10 110.15 o
-5 16 0 15864.20 14694.60 118.72 o
-11 16 0 16297.40 16225.30 97.92 o
-7 17 0 10212.50 9410.22 122.48 o
-10 17 0 9966.91 9902.94 110.01 o
-2 3 1 18057.60 18590.60 128.60 o
-1 3 -1 17522.60 17540.60 130.57 o
-1 4 1 54917.20 61816.50 155.86 o
-3 4 -1 57598.70 61026.70 156.73 o
-3 5 1 15464.00 13805.00 95.62 o
-2 5 -1 13478.30 16508.60 82.56 o
-5 6 1 75603.40 86264.40 123.93 o
-1 6 -1 78047.40 72183.40 174.98 o
-2 6 1 167567.00 181392.00 294.58 o
-4 6 -1 164359.00 191246.00 257.04 o
-4 7 1 38275.00 35115.80 112.85 o
-3 7 -1 35992.30 38698.40 95.21 o
-1 7 1 95528.70 95627.70 161.60 o
-6 7 -1 98646.70 104232.00 138.99 o
-6 8 1 12148.60 12276.30 64.85 o
-2 8 -1 12211.60 10911.00 96.24 o
-3 8 1 6335.15 6495.39 81.09 o
-5 8 -1 6684.66 6383.59 64.48 o
-8 9 1 17905.80 20456.30 71.34 o
-1 9 -1 19405.90 16582.30 102.96 o
-5 9 1 88957.40 89668.50 150.86 o
-4 9 -1 90606.80 90048.30 135.31 o
-2 9 1 160665.00 152412.00 190.83 o
-7 9 -1 156512.00 176477.00 166.40 o
-7 10 1 24767.80 23028.00 80.16 o
-3 10 -1 22084.60 23445.90 101.01 o
-4 10 1 103890.00 104373.00 155.78 o
-6 10 -1 107404.00 108056.00 133.59 o
-1 10 1 124472.00 113510.00 191.00 o
-9 10 -1 125754.00 135160.00 132.01 o
-9 11 1 19087.00 18637.30 75.40 o
-2 11 -1 18484.70 16441.30 106.76 o
-6 11 1 5276.34 4461.23 68.41 o
-5 11 -1 4689.36 5010.26 72.52 o
-3 11 1 2396.20 2535.44 78.59 o
-8 11 -1 2669.97 2523.57 68.26 o
-11 12 1 5864.43 6606.45 74.60 o
-1 12 -1 6194.45 5409.86 101.57 o
-8 12 1 26523.60 28828.30 86.27 o
-4 12 -1 27308.60 25797.90 105.27 o
-5 12 1 81909.10 76766.00 142.31 o
-7 12 -1 79418.60 83495.90 131.14 o
-2 12 1 105339.00 91049.50 177.17 o
-10 12 -1 104293.00 111787.00 123.93 o
-10 13 1 10788.30 11824.30 74.84 o
-3 13 -1 11152.80 10205.20 95.65 o
-7 13 1 57614.10 57359.00 115.87 o
-6 13 -1 56816.90 55113.60 126.53 o
-4 13 1 92377.80 80705.80 170.95 o
-9 13 -1 94399.60 96704.40 138.25 o
-1 13 1 93146.90 80071.50 176.84 o
-12 13 -1 92369.10 96646.40 120.02 o
-12 14 1 1602.35 1665.30 76.45 o
-2 14 -1 1719.23 1570.37 99.18 o
-9 14 1 1855.03 1673.92 70.26 o
-5 14 -1 1923.47 1707.06 93.00 o
-6 14 1 2424.65 2416.73 80.63 o
-8 14 -1 2477.37 2410.61 80.63 o
-3 14 1 627.12 662.84 101.18 o
-11 14 -1 585.30 807.37 74.34 o
-14 15 1 2406.86 2608.48 95.08 o
-1 15 -1 2272.52 2465.68 111.61 o
-11 15 1 4658.23 4669.52 84.86 o
-4 15 -1 4589.03 4249.17 103.49 o
-8 15 1 31304.70 30797.10 96.75 o
-7 15 -1 30796.40 30083.50 121.95 o
-5 15 1 53653.20 49653.40 136.32 o
-10 15 -1 55322.30 53926.70 115.13 o
-2 15 1 68464.90 60853.80 175.85 o
-13 15 -1 69677.60 71145.20 126.61 o
-13 16 1 8402.91 9019.22 93.32 o
-3 16 -1 8548.17 7856.42 120.29 o
-10 16 1 10537.40 10755.00 91.37 o
-6 16 -1 10752.60 9238.11 116.31 o
-7 16 1 39009.40 37749.20 137.19 o
-9 16 -1 39093.60 37962.00 137.19 o
-4 16 1 49329.60 44084.80 144.26 o
-12 16 -1 47920.70 51377.30 118.71 o
-9 17 1 2382.20 1978.02 103.35 o
-8 17 -1 1986.80 2165.63 111.59 o
-11 17 -1 3521.01 3085.74 248.18 o
0 1 2 12298.20 11759.00 174.05 o
-1 1 -2 12328.80 12841.90 178.42 o
-2 2 2 23826.50 25871.70 204.78 o
0 2 -2 24505.40 25834.10 202.98 o
-1 3 2 1890.44 2253.18 89.21 o
-2 3 -2 1808.26 2451.81 112.01 o
-3 4 2 32801.50 34320.70 121.48 o
-1 4 -2 32453.50 33725.10 128.01 o
0 4 2 59002.60 62293.40 214.09 o
-4 4 -2 56512.30 67195.40 222.32 o
-5 5 2 170763.00 191400.00 359.80 o
0 5 -2 175357.00 158172.00 486.03 o
-2 5 2 60467.30 59923.80 160.27 o
-3 5 -2 58284.20 65248.90 150.57 o
-4 6 2 17047.60 18553.30 86.79 o
-2 6 -2 17991.80 17054.80 89.03 o
-1 6 2 3563.41 4147.10 68.46 o
-5 6 -2 4022.44 3803.11 66.43 o
-6 7 2 40954.30 42569.80 95.30 o
-1 7 -2 40137.00 38193.30 136.33 o
-3 7 2 39997.50 41147.50 121.61 o
-4 7 -2 41283.10 41739.40 100.05 o
0 7 2 53519.40 53693.20 155.38 o
-7 7 -2 53404.30 58634.10 168.49 o
-8 8 2 199290.00 221890.00 271.19 o
0 8 -2 202365.00 187810.00 353.43 o
-5 8 2 116533.00 122254.00 161.12 o
-3 8 -2 115342.00 116215.00 160.93 o
-2 8 2 51268.10 49422.60 126.41 o
-6 8 -2 51244.30 55024.80 106.79 o
-7 9 2 44870.20 46492.00 94.70 o
-2 9 -2 44529.60 42299.00 118.34 o
-4 9 2 8430.16 8617.65 85.34 o
-5 9 -2 8829.46 8531.53 70.80 o
-1 9 2 5075.10 5036.94 76.73 o
-8 9 -2 5461.05 5078.11 64.31 o
-9 10 2 52648.90 53330.30 96.84 o
-1 10 -2 50094.40 47802.10 133.15 o
-6 10 2 37064.20 40044.80 104.48 o
-4 10 -2 39209.20 35647.80 111.08 o
-3 10 2 34296.10 33054.40 108.42 o
-7 10 -2 34600.60 35997.40 91.43 o
0 10 2 12065.60 9870.70 147.91 o
-10 10 -2 10751.90 12980.60 91.57 o
-11 11 2 162600.00 177011.00 229.64 o
0 11 -2 163265.00 150294.00 305.55 o
-8 11 2 147155.00 157717.00 154.12 o
-3 11 -2 147257.00 141898.00 186.35 o
-5 11 2 75769.80 71630.30 140.18 o
-6 11 -2 71818.10 77165.40 128.84 o
-2 11 2 23381.90 22723.20 98.73 o
-9 11 -2 24500.10 24615.40 84.10 o
-10 12 2 44615.00 44949.00 97.87 o
-2 12 -2 43272.80 41939.30 121.16 o
-7 12 2 14776.60 16402.70 79.29 o
-5 12 -2 15732.00 14357.30 91.87 o
-4 12 2 7733.98 7960.44 87.18 o
-8 12 -2 8412.83 7924.88 70.61 o
-1 12 2 715.43 793.01 97.06 o
-11 12 -2 770.36 693.91 61.96 o
-12 13 2 29036.10 30714.10 96.66 o
-1 13 -2 29627.80 27229.50 121.92 o
-9 13 2 32406.90 34186.60 92.78 o
-4 13 -2 33171.00 30165.50 113.93 o
-6 13 2 19213.10 18504.90 89.92 o
-7 13 -2 18934.30 18877.80 100.36 o
-3 13 2 2791.40 2510.44 103.40 o
-10 13 -2 2805.91 2793.77 72.38 o
0 13 2 4418.95 4176.54 163.50 o
-13 13 -2 4653.40 4572.48 107.64 o
-14 14 2 75288.30 75379.90 193.74 o
0 14 -2 73247.40 70944.60 215.02 o
-11 14 2 106324.00 110820.00 138.41 o
-3 14 -2 107710.00 100210.00 173.70 o
-8 14 2 76340.90 78710.40 123.34 o
-6 14 -2 76911.50 74605.20 151.52 o
-5 14 2 30003.40 27361.70 113.57 o
-9 14 -2 29111.80 30602.60 117.71 o
-2 14 2 1517.29 1690.00 115.70 o
-12 14 -2 1712.56 1849.30 74.39 o
-13 15 2 17631.30 18643.30 97.99 o
-2 15 -2 17759.20 17132.90 112.59 o
-10 15 2 20416.50 22005.50 96.10 o
-5 15 -2 21243.40 19186.00 117.05 o
-7 15 2 19886.70 18914.60 94.00 o
-8 15 -2 19014.50 19664.80 116.92 o
-4 15 2 8310.27 7612.43 120.31 o
-11 15 -2 8469.45 8444.98 97.50 o
-1 15 2 569.24 476.97 130.08 o
-14 15 -2 552.81 617.37 82.59 o
-12 16 2 13865.50 14148.10 99.85 o
-4 16 -2 13990.60 12919.50 128.99 o
-9 16 2 6825.36 6552.49 93.25 o
-7 16 -2 6480.36 6157.55 111.88 o
-6 16 2 2609.21 2509.62 97.16 o
-10 16 -2 2609.75 2542.70 109.56 o
-3 16 2 2615.75 2017.55 134.37 o
-13 16 -2 2311.26 2779.86 99.21 o
-8 17 2 19578.50 20412.20 106.42 o
-9 17 -2 20309.10 18725.30 139.87 o
-3 6 3 8516.23 9255.46 87.75 o
-3 6 -3 8425.75 9410.95 87.74 o
-5 7 3 127268.00 130517.00 173.94 o
-2 7 -3 123438.00 130343.00 182.73 o
-2 7 3 114359.00 123027.00 192.73 o
-5 7 -3 116214.00 121908.00 183.69 o
-7 8 3 79631.70 85576.70 120.38 o
-1 8 -3 80974.70 78134.90 154.01 o
-4 8 3 63526.70 63962.90 132.46 o
-4 8 -3 61970.90 64127.70 132.25 o
-1 8 3 65316.70 65036.90 120.98 o
-7 8 -3 65137.90 69741.00 129.75 o
-6 9 3 1564.82 2098.23 70.29 o
-3 9 -3 1978.98 1505.53 78.59 o
-3 9 3 5374.62 4881.85 82.99 o
-6 9 -3 5071.19 5678.98 74.67 o
-8 10 3 36096.70 33900.50 89.27 o
-2 10 -3 33031.40 34252.10 114.50 o
-5 10 3 41051.10 41924.90 111.18 o
-5 10 -3 41071.10 40875.80 109.05 o
-2 10 3 36932.60 38336.70 112.73 o
-8 10 -3 41182.90 39245.80 96.04 o
-10 11 3 5857.09 6301.37 70.48 o
-1 11 -3 6016.97 5684.32 85.00 o
-7 11 3 10089.10 12077.10 74.90 o
-4 11 -3 11868.10 9581.25 87.50 o
-4 11 3 18012.30 16247.90 96.29 o
-7 11 -3 16765.60 19241.60 85.74 o
-1 11 3 9718.99 8137.47 106.00 o
-10 11 -3 9000.65 10345.80 74.79 o
-9 12 3 3248.79 4077.67 68.27 o
-3 12 -3 4014.52 3338.81 89.01 o
-6 12 3 10450.30 10532.30 79.03 o
-6 12 -3 10331.40 10604.10 95.66 o
-3 12 3 4244.65 3407.67 86.95 o
-9 12 -3 3670.13 4701.77 76.57 o
-11 13 3 3151.40 3485.00 76.53 o
-2 13 -3 3272.76 3032.29 86.87 o
-8 13 3 14036.30 13932.40 83.34 o
-5 13 -3 13770.40 13250.80 99.99 o
-5 13 3 16095.80 15482.70 93.89 o
-8 13 -3 16288.70 16690.80 93.90 o
-2 13 3 3051.47 2628.58 103.41 o
-11 13 -3 2872.41 3269.33 78.58 o
-13 14 3 1576.23 1704.48 84.71 o
-1 14 -3 1593.27 1673.51 101.24 o
-10 14 3 1566.84 1787.21 82.65 o
-4 14 -3 1596.54 1562.03 95.04 o
-7 14 3 2755.21 2882.42 74.44 o
-7 14 -3 2817.82 3093.45 101.32 o
-4 14 3 1735.02 1661.34 82.65 o
-10 14 -3 1603.45 1888.49 84.71 o
-1 14 3 2997.22 2526.79 111.66 o
-13 14 -3 2883.78 3111.75 82.70 o
-12 15 3 7064.11 6922.32 84.97 o
-3 15 -3 6845.64 6774.32 105.69 o
-9 15 3 16985.90 16427.80 95.91 o
-6 15 -3 16504.00 16239.70 116.73 o
-6 15 3 19794.30 19880.00 96.07 o
-9 15 -3 20102.40 20600.00 119.06 o
-3 15 3 2880.14 2598.94 128.19 o
-12 15 -3 2963.44 2940.23 90.98 o
-11 16 3 2749.99 3008.01 97.17 o
-5 16 -3 2901.47 2514.13 115.78 o
-8 16 3 1322.43 1165.06 92.96 o
-8 16 -3 1091.42 1371.45 115.66 o
-5 16 3 1104.88 917.05 115.66 o
-11 16 -3 938.18 1160.66 115.65 o
-1 1 4 180042.00 170688.00 627.54 o
0 1 -4 181283.00 174990.00 637.82 o
0 2 4 21933.40 18030.20 155.64 o
-2 2 -4 18879.00 22855.00 165.40 o
-2 3 4 3349.92 4032.78 87.26 o
-1 3 -4 3537.92 3720.41 85.22 o
-4 4 4 22254.40 21929.50 138.92 o
0 4 -4 23319.00 22849.50 134.86 o
-1 4 4 14073.50 14021.30 86.64 o
-3 4 -4 14007.90 13569.70 97.20 o
-3 5 4 71210.90 73579.90 150.86 o
-2 5 -4 70860.90 71513.60 159.93 o
0 5 4 152918.00 174804.00 319.62 o
-5 5 -4 158672.00 167853.00 316.69 o
-5 6 4 20205.50 21245.00 86.77 o
-1 6 -4 20055.50 21351.10 95.22 o
-2 6 4 11734.50 10252.40 77.54 o
-4 6 -4 9638.30 12536.50 91.96 o
-7 7 4 44054.20 43523.20 138.11 o
0 7 -4 41919.70 44587.90 178.73 o
-4 7 4 17736.80 17613.10 86.38 o
-3 7 -4 17635.20 17695.30 90.58 o
-1 7 4 27997.10 27510.40 93.60 o
-6 7 -4 27795.80 28078.80 108.47 o
-6 8 4 32507.90 33001.90 98.05 o
-2 8 -4 32189.10 32970.30 108.67 o
-3 8 4 116122.00 126141.00 168.74 o
-5 8 -4 118020.00 122710.00 180.61 o
0 8 4 145882.00 146696.00 250.18 o
-8 8 -4 144206.00 154870.00 270.86 o
-8 9 4 3702.11 3215.77 64.19 o
-1 9 -4 3103.50 3657.03 80.72 o
-5 9 4 13372.40 13803.60 83.59 o
-4 9 -4 13551.70 13548.80 100.33 o
-2 9 4 65374.20 63465.10 133.25 o
-7 9 -4 65764.10 68249.40 148.59 o
-10 10 4 10854.40 11928.40 108.19 o
0 10 -4 11461.20 10330.90 126.98 o
-7 10 4 49160.20 52305.40 109.53 o
-3 10 -4 50499.20 48664.90 133.30 o
-4 10 4 52935.10 55887.30 135.82 o
-6 10 -4 53321.30 57112.30 138.01 o
-1 10 4 51208.10 47213.10 126.58 o
-9 10 -4 50750.20 53987.40 124.39 o
-9 11 4 14029.20 14927.90 75.07 o
-2 11 -4 14264.30 14033.60 100.11 o
-6 11 4 64709.80 66619.80 143.01 o
-5 11 -4 65042.40 66837.50 143.05 o
-3 11 4 119509.00 116936.00 168.57 o
-8 11 -4 117463.00 126286.00 157.12 o
0 11 4 148771.00 126750.00 304.13 o
-11 11 -4 147585.00 156429.00 267.62 o
-11 12 4 94.96 101.15 76.38 <
-1 12 -4 42.48 202.29 84.63 <
-8 12 4 6189.31 6101.07 70.48 o
-4 12 -4 5778.02 6066.16 93.26 o
-5 12 4 17342.40 17739.70 104.47 o
-7 12 -4 17361.20 18371.00 104.47 o
-2 12 4 28127.80 26452.20 105.14 o
-10 12 -4 29654.00 29335.10 103.14 o
-13 13 4 2727.52 2518.19 126.12 o
0 13 -4 2356.58 2788.41 140.56 o
-10 13 4 4857.34 4348.11 78.68 o
-3 13 -4 4346.08 4655.10 97.28 o
-7 13 4 12904.20 13342.00 91.60 o
-6 13 -4 13012.70 13070.20 120.75 o
-4 13 4 21460.90 21466.20 104.64 o
-9 13 -4 21421.80 22811.40 106.73 o
-1 13 4 23465.50 21203.10 125.61 o
-12 13 -4 23196.10 24136.50 94.19 o
-12 14 4 4234.43 4343.43 84.84 o
-2 14 -4 4073.09 4167.15 101.39 o
-9 14 4 28914.50 29750.10 98.74 o
-5 14 -4 29089.00 28538.80 136.57 o
-6 14 4 71591.10 71250.10 165.96 o
-8 14 -4 71995.70 73481.10 170.32 o
-3 14 4 100676.00 93655.70 185.94 o
-11 14 -4 101128.00 104254.00 148.79 o
0 14 4 92323.90 84093.00 254.02 o
-14 14 -4 94226.40 94909.00 202.11 o
-14 15 4 582.35 896.13 169.31 o
-1 15 -4 847.46 631.93 291.18 <
-11 15 4 6225.05 6471.64 89.08 o
-4 15 -4 6307.93 6088.69 113.94 o
-8 15 4 9810.11 10077.50 91.35 o
-7 15 -4 10128.40 9911.21 110.06 o
-5 15 4 17605.80 17160.70 123.04 o
-10 15 -4 17416.70 18349.40 100.09 o
-2 15 4 15385.50 13171.20 129.09 o
-13 15 -4 14759.90 15462.30 99.90 o
-10 16 4 2858.53 2669.13 95.10 o
-6 16 -4 2665.39 3092.62 119.90 o
-7 16 4 4765.84 4509.97 95.21 o
-9 16 -4 4592.33 5053.81 124.17 o
-4 16 4 15647.10 13613.40 149.92 o
-12 16 -4 15766.70 15767.40 112.45 o
-1 3 5 31973.90 30487.70 117.43 o
-2 3 -5 32877.00 32093.00 121.95 o
-3 4 5 35486.50 35149.50 117.36 o
-1 4 -5 36227.20 33189.20 121.83 o
-2 5 5 16150.00 16644.00 84.37 o
-3 5 -5 15953.70 15979.60 97.00 o
-4 6 5 68829.10 64634.40 143.04 o
-2 6 -5 65422.20 67744.70 151.40 o
-1 6 5 28831.20 30348.20 119.46 o
-5 6 -5 30672.20 28388.80 109.01 o
-6 7 5 98224.80 100454.00 147.70 o
-1 7 -5 97543.90 103585.00 177.13 o
-3 7 5 32341.30 34320.20 98.29 o
-4 7 -5 32871.70 32526.30 109.03 o
-5 8 5 4530.17 4735.29 74.64 o
-3 8 -5 4640.55 4372.95 82.94 o
-2 8 5 13858.20 13336.40 81.56 o
-6 8 -5 12751.50 13892.90 91.92 o
-7 9 5 120130.00 122185.00 156.99 o
-2 9 -5 117845.00 124566.00 172.61 o
-4 9 5 81183.00 84071.20 143.84 o
-5 9 -5 81520.00 84973.30 139.45 o
-1 9 5 14935.30 15148.70 85.67 o
-8 9 -5 15433.70 15324.10 96.15 o
-9 10 5 86845.20 96052.50 120.85 o
-1 10 -5 90782.50 89793.50 165.25 o
-6 10 5 87445.60 93721.30 141.41 o
-4 10 -5 90214.50 89363.80 143.92 o
-3 10 5 23154.00 21783.70 98.80 o
-7 10 -5 21169.90 24167.90 90.25 o
-8 11 5 3882.79 3980.52 78.66 o
-3 11 -5 4061.75 3819.56 105.58 o
-5 11 5 1238.12 1295.41 78.51 o
-6 11 -5 1159.28 1392.43 72.31 o
-2 11 5 3058.53 2776.07 91.02 o
-9 11 -5 2764.73 3199.47 78.59 o
-10 12 5 91061.70 94264.90 128.99 o
-2 12 -5 89340.90 91477.70 174.71 o
-7 12 5 70081.20 70458.90 127.65 o
-5 12 -5 68860.80 71390.70 134.03 o
-4 12 5 30387.00 32980.50 105.34 o
-8 12 -5 32707.60 31892.00 103.39 o
-1 12 5 5186.50 4607.86 89.05 o
-11 12 -5 5049.57 5336.37 89.04 o
-12 13 5 76873.00 80296.60 129.51 o
-1 13 -5 77107.30 76961.20 168.38 o
-9 13 5 67096.20 68666.40 120.50 o
-4 13 -5 65925.00 67794.30 156.97 o
-6 13 5 35927.80 36373.60 111.94 o
-7 13 -5 36264.30 37355.20 111.96 o
-3 13 5 9328.84 8703.34 95.50 o
-10 13 -5 8769.23 9457.85 91.32 o
-11 14 5 45.57 181.65 78.44 <
-3 14 -5 58.84 119.72 115.60 <
-8 14 5 1655.69 1894.73 80.58 o
-6 14 -5 1791.86 1731.64 97.12 o
-5 14 5 2657.31 2514.04 93.04 o
-9 14 -5 2618.46 2726.93 88.90 o
-2 14 5 2428.41 2193.15 124.02 o
-12 14 -5 2254.19 2345.87 93.01 o
-13 15 5 61812.40 64184.40 132.38 o
-2 15 -5 62538.00 59932.90 181.56 o
-10 15 5 40502.90 40295.40 111.96 o
-5 15 -5 39967.60 40435.30 143.60 o
-7 15 5 21053.50 20876.40 112.83 o
-8 15 -5 21258.00 21762.80 123.30 o
-4 15 5 3245.39 3341.86 101.33 o
-11 15 -5 2979.29 3502.63 99.25 o
-9 16 5 41169.70 41123.30 111.93 o
-7 16 -5 40783.90 41308.90 152.03 o
-6 16 5 9666.18 9828.93 114.14 o
-10 16 -5 10276.70 10164.50 122.49 o
-1 2 6 102834.00 88495.90 165.17 o
-1 2 -6 102674.00 94792.40 167.52 o
-2 4 6 82648.10 79417.30 153.59 o
-2 4 -6 81464.20 82116.90 155.65 o
-4 5 6 63786.70 63878.90 135.45 o
-1 5 -6 63985.30 63431.00 137.71 o
-1 5 6 49427.90 52226.60 124.56 o
-4 5 -6 50924.40 47507.40 129.15 o
-6 6 6 121205.00 113991.00 245.79 o
0 6 -6 117265.00 123023.00 247.22 o
-3 6 6 175379.00 187135.00 236.83 o
-3 6 -6 178945.00 178761.00 225.24 o
0 6 6 156942.00 165717.00 287.26 o
-6 6 -6 156236.00 161104.00 279.91 o
-5 7 6 25107.80 24387.30 93.08 o
-2 7 -6 24544.30 25052.70 101.49 o
-2 7 6 33085.60 35083.00 102.33 o
-5 7 -6 33699.60 32612.20 113.05 o
-7 8 6 20470.80 21641.10 84.03 o
-1 8 -6 21250.10 20520.30 103.00 o
-4 8 6 40989.50 41288.80 113.53 o
-4 8 -6 40640.80 40714.90 119.92 o
-1 8 6 19092.00 19521.80 109.11 o
-7 8 -6 18883.20 19495.20 92.31 o
-9 9 6 30619.90 31086.40 126.70 o
0 9 -6 29526.40 31198.60 177.24 o
-6 9 6 66148.70 69247.10 126.30 o
-3 9 -6 67330.80 67162.30 130.78 o
-3 9 6 60222.20 64691.40 121.38 o
-6 9 -6 60629.60 61071.90 127.92 o
0 9 6 42409.70 39626.20 161.88 o
-9 9 -6 40053.00 43485.60 163.73 o
-8 10 6 879.03 1377.68 74.36 o
-2 10 -6 1076.92 1003.97 95.03 o
-5 10 6 3833.50 3589.88 82.81 o
-5 10 -6 3466.64 4064.89 76.58 o
-2 10 6 1226.25 1805.70 76.44 o
-8 10 -6 1504.89 1721.35 86.79 o
-10 11 6 4085.88 4818.38 72.44 o
-1 11 -6 4556.67 3927.54 101.45 o
-7 11 6 24208.70 24006.20 94.49 o
-4 11 -6 23470.50 24980.10 98.64 o
-4 11 6 15365.40 14219.00 89.73 o
-7 11 -6 14044.00 15531.70 87.56 o
-1 11 6 3937.86 4058.38 97.27 o
-10 11 -6 4330.22 4127.75 86.94 o
-12 12 6 1934.61 2205.02 113.66 o
0 12 -6 2059.84 1953.05 146.74 o
-9 12 6 7405.46 7479.21 78.82 o
-3 12 -6 7144.87 7349.38 109.91 o
-6 12 6 6594.39 7078.21 82.93 o
-6 12 -6 7115.65 6499.95 87.11 o
-3 12 6 3940.68 3764.32 86.92 o
-9 12 -6 3676.23 3976.79 84.83 o
0 12 6 897.18 1100.78 159.02 o
-12 12 -6 1158.05 1319.91 117.74 o
-11 13 6 1823.85 1770.91 82.66 o
-2 13 -6 1704.77 1834.84 119.84 o
-8 13 6 1916.81 2436.56 86.80 o
-5 13 -6 2159.13 1949.13 90.95 o
-5 13 6 3526.04 3791.96 86.89 o
-8 13 -6 3719.69 3595.87 80.69 o
-2 13 6 1144.08 1107.14 92.95 o
-11 13 -6 1052.41 1216.55 92.95 o
-13 14 6 180.88 332.36 86.70 o
-1 14 -6 127.07 332.35 123.86 <
-10 14 6 5561.33 5384.39 84.91 o
-4 14 -6 5267.94 5478.71 113.88 o
-7 14 6 8969.51 10004.90 97.54 o
-7 14 -6 9654.84 9294.80 93.43 o
-4 14 6 7728.44 7454.44 95.38 o
-10 14 -6 7748.50 7767.64 99.53 o
-1 14 6 1159.12 1274.41 154.91 o
-13 14 -6 1255.21 1311.66 92.95 o
-12 15 6 1984.08 2252.42 90.92 o
-3 15 -6 2182.99 1988.14 128.13 o
-9 15 6 394.65 569.83 84.65 o
-6 15 -6 403.23 666.87 111.49 o
-6 15 6 224.99 427.33 92.90 o
-9 15 -6 220.20 390.17 92.90 o
-3 15 6 1261.18 1363.30 115.67 o
-12 15 -6 1479.56 1318.02 95.03 o
-8 16 6 15050.20 13779.70 108.24 o
-8 16 -6 14187.30 15364.80 135.24 o
-2 3 7 6875.63 5906.49 74.95 o
-1 3 -7 6564.20 6278.81 77.00 o
-1 4 7 25645.60 24713.90 99.92 o
-3 4 -7 27303.40 25188.50 104.37 o
-3 5 7 9172.77 7843.19 77.14 o
-2 5 -7 8201.49 8990.81 81.22 o
-5 6 7 37154.90 37230.70 111.24 o
-1 6 -7 39628.30 35936.80 130.80 o
-2 6 7 98530.20 98963.20 151.99 o
-4 6 -7 96237.10 95749.50 165.25 o
-4 7 7 25830.60 26702.30 93.01 o
-3 7 -7 25542.70 25342.80 105.67 o
-1 7 7 62638.00 64063.90 132.94 o
-6 7 -7 62619.10 61909.60 132.94 o
-6 8 7 9846.66 9744.27 79.09 o
-2 8 -7 9506.83 10218.00 85.31 o
-3 8 7 2368.67 2721.92 70.32 o
-5 8 -7 2552.16 2261.04 84.81 o
-8 9 7 17270.40 18792.10 89.90 o
-1 9 -7 18330.60 16808.50 131.82 o
-5 9 7 45629.70 46163.20 113.37 o
-4 9 -7 45394.40 45808.40 115.49 o
-2 9 7 96080.70 97140.40 148.51 o
-7 9 -7 93685.70 99260.30 159.32 o
-7 10 7 22872.20 21269.90 94.43 o
-3 10 -7 20773.60 23819.50 102.67 o
-4 10 7 42351.30 44125.80 119.20 o
-6 10 -7 44106.90 43482.00 110.82 o
-1 10 7 81584.60 84756.40 150.42 o
-9 10 -7 85112.70 83038.30 148.58 o
-9 11 7 9380.17 9115.73 81.00 o
-2 11 -7 9128.77 9070.62 112.14 o
-6 11 7 4116.64 3723.96 84.87 o
-5 11 -7 3782.42 4134.94 84.85 o
-3 11 7 1374.68 1721.03 82.64 o
-8 11 -7 1454.27 1696.33 84.71 o
-11 12 7 4464.53 4687.96 80.72 o
-1 12 -7 4456.12 4371.27 134.53 o
-8 12 7 13679.00 15423.40 95.78 o
-4 12 -7 14803.50 14130.00 102.11 o
-5 12 7 58065.10 57653.20 130.64 o
-7 12 -7 56709.40 59954.20 126.25 o
-2 12 7 76212.50 72699.70 162.09 o
-10 12 -7 75091.80 77459.80 142.55 o
-10 13 7 6970.69 7432.94 78.77 o
-3 13 -7 6993.86 6964.59 118.15 o
-7 13 7 36688.50 36669.10 116.09 o
-6 13 -7 36950.00 37635.30 114.00 o
-4 13 7 64291.70 63647.30 145.81 o
-9 13 -7 64366.90 66358.50 132.95 o
-1 13 7 60562.80 56981.70 177.30 o
-12 13 -7 60173.20 62020.30 132.41 o
-12 14 7 1593.59 1886.26 86.77 o
-2 14 -7 1497.38 1555.62 132.22 o
-9 14 7 1154.46 1226.93 80.56 o
-5 14 -7 1152.34 1096.80 107.41 o
-6 14 7 1240.66 1617.40 90.89 o
-8 14 -7 1343.70 1299.37 95.03 o
-3 14 7 515.51 640.07 101.17 o
-11 14 -7 526.90 565.75 92.91 o
-11 15 7 4120.71 4284.73 97.24 o
-4 15 -7 4041.41 4187.30 130.34 o
-8 15 7 19170.50 19082.30 112.68 o
-7 15 -7 19158.00 19906.40 129.37 o
-5 15 7 41182.00 39857.10 141.50 o
-10 15 -7 41786.20 42792.10 126.76 o
0 1 8 15465.80 13946.00 119.81 o
-1 1 -8 14843.60 15683.40 115.52 o
-2 2 8 24688.00 21953.90 131.59 o
0 2 -8 24008.70 23012.50 135.73 o
-1 3 8 485.35 625.77 70.22 o
-2 3 -8 540.53 598.96 68.16 o
-3 4 8 20218.80 19812.00 92.74 o
-1 4 -8 20585.60 18925.40 92.77 o
0 4 8 29873.00 26779.30 144.62 o
-4 4 -8 29852.20 30370.70 153.12 o
-5 5 8 45282.00 48064.10 182.93 o
0 5 -8 47834.10 42253.70 168.25 o
-2 5 8 22880.80 17361.40 101.32 o
-3 5 -8 21644.30 21628.90 94.87 o
-4 6 8 19581.10 19237.40 92.46 o
-2 6 -8 19472.60 19374.20 92.45 o
-1 6 8 446.52 441.90 74.34 o
-5 6 -8 271.06 580.16 78.46 o
-6 7 8 29621.70 29096.80 105.75 o
-1 7 -8 30205.20 30369.50 103.68 o
-3 7 8 34935.00 37364.00 102.07 o
-4 7 -8 35969.90 33780.60 110.67 o
0 7 8 27904.80 25791.90 173.04 o
-7 7 -8 27188.60 27466.80 139.20 o
-8 8 8 122601.00 122857.00 249.83 o
0 8 -8 123121.00 129278.00 249.91 o
-5 8 8 61699.10 64468.00 125.63 o
-3 8 -8 62295.40 62161.20 140.86 o
-2 8 8 29563.30 30635.50 101.39 o
-6 8 -8 29693.20 29037.30 109.85 o
-7 9 8 11913.70 11932.60 83.28 o
-2 9 -8 11058.30 11939.80 95.72 o
-4 9 8 3934.16 3803.05 76.60 o
-5 9 -8 3766.27 3895.72 84.87 o
-1 9 8 3977.99 3744.61 86.94 o
-8 9 -8 3820.47 4207.81 89.00 o
-9 10 8 25157.80 24704.60 98.63 o
-1 10 -8 23849.20 25681.60 144.68 o
-6 10 8 13816.00 13834.80 93.79 o
-4 10 -8 13598.50 14184.90 89.61 o
-3 10 8 7070.10 7106.47 80.90 o
-7 10 -8 7116.63 6857.78 89.20 o
0 10 8 7703.56 7922.12 143.13 o
-10 10 -8 7873.43 7925.05 132.78 o
-11 11 8 99120.50 101487.00 190.32 o
0 11 -8 97624.60 93961.10 347.54 o
-8 11 8 95915.80 98091.00 151.26 o
-3 11 -8 95807.60 98549.30 162.21 o
-5 11 8 45646.20 46073.60 121.21 o
-6 11 -8 45110.50 47214.20 119.04 o
-2 11 8 11718.10 11849.50 95.66 o
-9 11 -8 12205.70 12003.00 101.93 o
-10 12 8 23590.00 25606.20 94.21 o
-2 12 -8 24289.80 23727.70 146.61 o
-7 12 8 13390.90 13746.20 93.67 o
-5 12 -8 13476.80 13788.60 97.84 o
-4 12 8 6039.39 6110.06 95.31 o
-8 12 -8 6159.81 6156.10 89.10 o
-1 12 8 1089.12 1175.26 111.54 o
-11 12 -8 1174.66 1109.22 101.21 o
-12 13 8 19520.50 20198.80 102.27 o
-1 13 -8 19913.60 18547.80 167.00 o
-9 13 8 21044.30 22052.40 104.49 o
-4 13 -8 21587.70 21693.60 125.43 o
-6 13 8 12095.20 12042.40 99.80 o
-7 13 -8 11966.10 12505.00 97.71 o
-3 13 8 3528.20 3135.72 109.63 o
-10 13 -8 3269.81 3691.56 91.00 o
0 13 8 2225.05 2368.46 241.81 o
-13 13 -8 2131.12 2537.80 157.06 o
-11 14 8 57467.30 60049.20 129.98 o
-3 14 -8 58121.10 58149.90 185.45 o
-8 14 8 40525.40 40355.20 126.74 o
-6 14 -8 40887.10 41060.60 130.99 o
-5 14 8 16457.70 15548.30 118.77 o
-9 14 -8 15882.90 16909.60 112.48 o
-2 14 8 530.76 588.46 132.14 o
-12 14 -8 484.53 776.33 97.04 o
-10 15 8 13782.50 13626.20 145.60 o
-5 15 -8 14248.40 14274.70 149.80 o
-7 15 8 12993.20 12855.70 114.36 o
-8 15 -8 13150.40 13441.10 112.29 o
-1 2 9 176884.00 158588.00 190.09 o
-1 2 -9 177793.00 168603.00 195.12 o
-2 4 9 144352.00 134274.00 180.62 o
-2 4 -9 143864.00 142046.00 185.24 o
-4 5 9 103198.00 101158.00 162.17 o
-1 5 -9 102624.00 101762.00 168.85 o
-1 5 9 97429.00 91306.90 161.41 o
-4 5 -9 97723.40 98019.90 161.45 o
-3 6 9 670.61 724.93 70.22 o
-3 6 -9 585.84 1049.11 78.48 o
-5 7 9 68778.60 69049.20 137.10 o
-2 7 -9 69298.50 69304.60 139.33 o
-2 7 9 74167.70 74206.20 135.47 o
-5 7 -9 72890.90 72653.50 141.89 o
-7 8 9 35713.70 35068.20 114.34 o
-1 8 -9 35871.70 36302.40 116.47 o
-4 8 9 41319.70 41995.70 106.42 o
-4 8 -9 40683.30 40646.60 121.26 o
-1 8 9 24142.00 24378.60 111.31 o
-7 8 -9 24583.70 24283.30 107.14 o
-6 9 9 1136.48 1189.90 76.43 o
-3 9 -9 921.18 1392.13 84.68 o
-3 9 9 2487.06 3045.81 76.51 o
-6 9 -9 2802.78 2266.77 86.87 o
-8 10 9 10822.30 12239.50 89.38 o
-2 10 -9 11856.10 11026.60 101.93 o
-5 10 9 24452.40 25115.90 102.81 o
-5 10 -9 24728.70 24940.00 104.92 o
-2 10 9 21408.00 20736.90 106.74 o
-8 10 -9 21306.90 21380.10 113.01 o
-10 11 9 4230.81 4012.63 80.71 o
-1 11 -9 3832.44 4193.73 146.89 o
-7 11 9 3772.87 3573.31 86.90 o
-4 11 -9 3379.49 3748.25 95.15 o
-4 11 9 4688.57 5484.18 93.16 o
-7 11 -9 5325.89 4869.20 93.20 o
-1 11 9 3891.83 4071.81 105.52 o
-10 11 -9 3861.10 4009.67 99.31 o
-9 12 9 3147.17 3162.01 86.86 o
-3 12 -9 3069.34 3455.51 122.01 o
-6 12 9 6175.32 6116.30 93.24 o
-6 12 -9 5981.67 6287.53 91.15 o
-3 12 9 2336.76 2714.01 103.35 o
-9 12 -9 2777.78 2627.88 101.31 o
-11 13 9 1918.44 1917.61 86.79 o
-2 13 -9 1896.84 1795.67 138.45 o
-8 13 9 3960.14 3825.43 95.17 o
-5 13 -9 3945.89 4404.69 103.44 o
-5 13 9 7200.60 7064.19 107.79 o
-8 13 -9 7047.82 7212.79 99.49 o
-2 13 9 2033.67 1698.69 136.39 o
-11 13 -9 1919.23 2142.85 97.12 o
-10 14 9 1566.79 1543.27 92.97 o
-4 14 -9 1491.01 1629.97 126.02 o
-7 14 9 703.71 929.23 107.38 o
-7 14 -9 763.76 1096.53 103.25 o
-4 14 9 1086.26 1158.69 111.53 o
-10 14 -9 1062.85 1334.23 97.07 o
-1 1 10 7419.35 6717.12 110.15 o
0 1 -10 7646.80 7215.35 110.17 o
0 2 10 12644.30 10209.20 114.83 o
-2 2 -10 12297.30 11623.20 116.88 o
-2 3 10 292.99 425.32 72.26 o
-1 3 -10 336.61 540.97 70.20 o
-4 4 10 18229.40 17020.10 127.83 o
0 4 -10 17794.10 17397.40 136.16 o
-1 4 10 8202.78 7185.56 78.99 o
-3 4 -10 8314.57 8053.08 81.07 o
-3 5 10 21148.20 20373.50 98.70 o
-2 5 -10 20537.90 21509.50 102.85 o
0 5 10 36019.10 33674.70 163.47 o
-5 5 -10 37089.00 35476.60 169.98 o
-5 6 10 1625.56 1810.44 82.67 o
-1 6 -10 1741.46 1709.32 90.94 o
-2 6 10 4801.11 4460.73 82.87 o
-4 6 -10 4578.13 4752.04 84.93 o
-7 7 10 19254.00 17318.90 140.18 o
0 7 -10 17974.80 19853.70 156.77 o
-4 7 10 13985.70 14319.90 93.85 o
-3 7 -10 14407.10 14049.00 91.80 o
-1 7 10 16090.90 15863.90 100.23 o
-6 7 -10 16210.90 15980.10 96.06 o
-6 8 10 13649.90 12606.80 97.94 o
-2 8 -10 13423.60 13588.20 97.92 o
-3 8 10 55881.00 57954.90 122.28 o
-5 8 -10 56459.00 55786.30 137.35 o
0 8 10 66954.00 67006.80 198.34 o
-8 8 -10 67233.90 66434.40 196.21 o
-8 9 10 356.47 445.96 94.97 o
-1 9 -10 309.81 365.43 103.23 o
-5 9 10 4253.18 4583.10 89.01 o
-4 9 -10 4557.22 4155.45 91.10 o
-2 9 10 19584.90 19768.30 104.54 o
-7 9 -10 19545.00 19897.40 108.72 o
-10 10 10 7403.87 7530.38 118.18 o
0 10 -10 7134.00 6838.85 217.67 o
-7 10 10 13195.50 13614.60 95.75 o
-3 10 -10 13669.90 13512.50 99.94 o
-4 10 10 17855.90 19407.60 98.12 o
-6 10 -10 18714.00 18616.00 114.89 o
-1 10 10 25082.50 24010.90 113.18 o
-9 10 -10 23731.40 25606.00 117.28 o
-9 11 10 5105.31 5557.08 86.96 o
-2 11 -10 5405.33 5359.27 130.46 o
-6 11 10 42891.10 41933.60 122.87 o
-5 11 -10 42009.70 44253.40 124.92 o
-3 11 10 62109.40 60630.20 143.48 o
-8 11 -10 61805.20 63518.50 141.31 o
0 11 10 66919.00 64787.80 225.07 o
-11 11 -10 66496.60 68636.60 216.45 o
-11 12 10 149.04 332.36 88.77 o
-1 12 -10 113.96 433.50 163.08 <
-8 12 10 2493.26 2571.55 90.96 o
-4 12 -10 2673.10 2714.48 105.44 o
-5 12 10 10266.90 10595.10 110.06 o
-7 12 -10 10802.10 10492.50 99.71 o
-2 12 10 13774.80 12431.00 139.39 o
-10 12 -10 13533.40 14068.50 114.41 o
-10 13 10 3394.59 3495.08 99.27 o
-3 13 -10 3414.59 3497.19 140.63 o
-7 13 10 6982.92 6930.12 107.76 o
-6 13 -10 6979.23 7062.74 113.98 o
-4 13 10 10189.80 9670.46 120.41 o
-9 13 -10 10078.50 10500.20 107.95 o
-6 14 10 30213.10 28572.30 136.43 o
-8 14 -10 30582.40 30862.10 132.26 o
-1 3 11 13159.10 11923.60 83.44 o
-2 3 -11 13601.70 13085.90 87.64 o
-3 4 11 8516.91 8504.54 83.11 o
-1 4 -11 8974.85 8457.67 81.06 o
-2 5 11 5478.28 4947.48 82.91 o
-3 5 -11 5174.69 6104.71 87.03 o
-4 6 11 30667.80 27848.20 105.49 o
-2 6 -11 28904.80 30744.80 111.68 o
-1 6 11 9568.19 9771.88 122.62 o
-5 6 -11 10212.00 9366.74 91.48 o
-6 7 11 38324.90 35522.60 120.72 o
-1 7 -11 38928.10 38318.50 125.00 o
-3 7 11 12022.00 11191.80 93.66 o
-4 7 -11 11659.90 12000.50 106.13 o
-5 8 11 259.06 466.58 84.64 o
-3 8 -11 303.38 361.30 88.78 o
-2 8 11 4714.37 4387.50 86.96 o
-6 8 -11 4565.42 4540.28 89.03 o
-7 9 11 47806.10 44133.90 136.07 o
-2 9 -11 46275.10 49519.90 146.56 o
-4 9 11 28862.10 30040.70 107.21 o
-5 9 -11 29318.90 28529.00 121.96 o
-1 9 11 7626.98 8009.36 97.47 o
-8 9 -11 8159.26 7675.91 93.36 o
-9 10 11 40974.90 42671.30 118.40 o
-1 10 -11 42452.90 41607.30 192.56 o
-6 10 11 29732.60 30997.00 113.50 o
-4 10 -11 31185.80 30289.90 124.11 o
-3 10 11 14521.10 13531.50 104.12 o
-7 10 -11 13662.70 14815.00 110.31 o
-8 11 11 2669.18 3018.37 101.30 o
-3 11 -11 2824.90 2747.80 115.78 o
-5 11 11 2056.91 1798.00 97.13 o
-6 11 -11 1840.19 2421.82 95.05 o
-2 11 11 1709.67 1223.19 130.17 o
-9 11 -11 1318.00 1871.54 97.09 o
-10 12 11 40066.40 39956.00 130.86 o
-2 12 -11 39649.70 40356.30 217.34 o
-7 12 11 32703.10 32453.90 124.07 o
-5 12 -11 31988.50 33657.90 124.02 o
-4 12 11 11809.00 12526.80 118.45 o
-8 12 -11 12684.40 12032.00 122.67 o
-1 12 11 1498.43 1452.31 117.75 o
-11 12 -11 1508.92 1815.91 132.22 o
-9 13 11 29253.60 28846.70 132.16 o
-4 13 -11 29041.30 30510.90 144.73 o
-6 13 11 15660.80 14721.90 124.94 o
-7 13 -11 15388.10 16262.40 122.84 o
0 0 12 87960.20 70773.00 317.13 o
0 0 -12 81678.40 87966.10 337.64 o
-1 2 12 43611.00 38335.10 106.59 o
-1 2 -12 44577.00 43046.50 110.93 o
-3 3 12 108744.00 101436.00 220.51 o
0 3 -12 110447.00 109916.00 225.22 o
0 3 12 117985.00 102649.00 219.63 o
-3 3 -12 116676.00 121409.00 241.83 o
-2 4 12 21907.80 19432.50 94.35 o
-2 4 -12 21347.40 21946.10 98.51 o
-4 5 12 14256.10 14106.30 93.81 o
-1 5 -12 14319.40 14267.40 95.89 o
-1 5 12 16754.50 14612.80 96.05 o
-4 5 -12 16280.20 17801.90 104.37 o
-6 6 12 54073.50 50892.30 194.49 o
0 6 -12 54361.90 55535.90 205.21 o
-3 6 12 70419.70 67209.90 138.39 o
-3 6 -12 71943.40 72054.70 142.85 o
0 6 12 60787.60 59879.30 218.92 o
-6 6 -12 61496.60 61988.70 208.28 o
-5 7 12 5540.32 5270.12 95.29 o
-2 7 -12 5304.69 5909.33 93.21 o
-2 7 12 8994.72 8902.86 91.35 o
-5 7 -12 8718.82 9453.45 99.64 o
-7 8 12 10976.00 10197.40 103.91 o
-1 8 -12 10980.60 11490.10 108.06 o
-4 8 12 11420.20 11863.20 91.48 o
-4 8 -12 11321.40 11640.00 101.87 o
-1 8 12 8799.31 8384.49 118.30 o
-7 8 -12 9059.87 8838.33 103.79 o
-9 9 12 10499.00 9304.29 151.61 o
0 9 -12 9680.77 10680.30 232.50 o
-6 9 12 18062.90 17264.30 102.25 o
-3 9 -12 17552.40 18496.10 114.74 o
-3 9 12 16548.10 16018.50 106.33 o
-6 9 -12 16087.30 16929.10 108.39 o
0 9 12 9838.53 9840.49 137.02 o
-9 9 -12 9623.13 11815.40 153.61 o
-8 10 12 1810.21 1948.54 95.05 o
-2 10 -12 1967.61 1892.92 115.72 o
-5 10 12 1308.58 1355.13 101.22 o
-5 10 -12 1331.27 1557.59 105.35 o
-2 10 12 2256.93 2242.54 121.94 o
-8 10 -12 2432.32 2416.41 109.56 o
-10 11 12 1555.77 1611.44 103.30 o
-1 11 -12 1569.82 1636.24 152.88 o
-7 11 12 9703.18 9722.38 99.63 o
-4 11 -12 9824.39 9743.81 114.17 o
-4 11 12 7119.02 6582.55 113.99 o
-7 11 -12 6940.37 7041.95 118.13 o
-1 11 12 1403.76 1683.60 119.82 o
-10 11 -12 1425.91 1489.44 109.49 o
-9 12 12 3104.45 3128.46 134.40 o
-3 12 -12 3216.17 3467.78 132.34 o
-6 12 12 3733.26 3772.92 109.63 o
-6 12 -12 3801.66 4027.50 105.50 o
-3 12 12 2960.72 2175.07 175.74 o
-9 12 -12 2830.12 3138.32 173.66 o
-2 3 13 4064.93 3837.55 84.86 o
-1 3 -13 4122.33 4228.92 80.73 o
-1 4 13 8398.80 7483.01 87.18 o
-3 4 -13 8441.96 8880.23 93.41 o
-3 5 13 2250.27 2445.48 86.82 o
-2 5 -13 2224.40 2544.66 88.89 o
-5 6 13 9952.14 10192.40 110.09 o
-1 6 -13 10113.40 10583.90 110.10 o
-2 6 13 20060.20 18385.80 106.61 o
-4 6 -13 19982.60 20956.10 112.88 o
-4 7 13 7740.01 7680.26 95.41 o
-3 7 -13 8001.47 8123.35 99.57 o
-1 7 13 27720.90 25894.30 125.94 o
-6 7 -13 27263.30 28514.50 123.81 o
-6 8 13 3079.33 2891.00 107.53 o
-2 8 -13 3134.28 3538.38 103.40 o
-3 8 13 1164.40 1257.95 88.82 o
-5 8 -13 1098.88 1231.04 99.14 o
-8 9 13 9075.92 8857.94 120.35 o
-1 9 -13 9179.66 9885.62 124.50 o
-5 9 13 18563.90 17972.50 110.59 o
-4 9 -13 18003.50 18809.40 131.42 o
-2 9 13 25989.70 25533.60 138.29 o
-7 9 -13 26361.30 26993.50 132.03 o
-7 10 13 5247.10 5548.49 109.73 o
-3 10 -13 5513.87 5694.28 118.03 o
-4 10 13 17682.40 17014.20 112.59 o
-6 10 -13 17007.50 18347.90 118.80 o
-1 10 13 31282.80 31344.10 138.63 o
-9 10 -13 31832.90 33937.90 142.87 o
-6 11 13 360.78 460.40 109.42 o
-5 11 -13 382.36 421.17 103.23 o
-3 11 13 604.21 483.17 125.96 o
-8 11 -13 620.29 792.91 111.50 o
0 1 14 365.61 384.02 109.43 o
-1 1 -14 225.87 534.69 115.61 o
-2 2 14 4599.55 3863.12 120.08 o
0 2 -14 4384.29 4887.23 122.13 o
-1 3 14 102.55 303.45 80.51 o
-2 3 -14 118.56 177.53 84.64 <
-3 4 14 3525.45 3413.38 84.82 o
-1 4 -14 3663.81 3775.74 91.03 o
0 4 14 5558.53 4743.27 132.56 o
-4 4 -14 5555.38 5981.89 128.42 o
-5 5 14 18467.50 17711.20 150.29 o
0 5 -14 18216.50 20457.10 158.62 o
-2 5 14 7191.71 6653.30 101.59 o
-3 5 -14 7230.97 7545.01 101.60 o
-4 6 14 3582.49 3464.94 117.91 o
-2 6 -14 3479.22 4027.35 122.04 o
-1 6 14 366.33 338.59 113.55 <
-5 6 -14 317.50 326.20 103.23 o
-6 7 14 7449.88 7469.62 109.88 o
-1 7 -14 7887.11 7911.16 114.05 o
-3 7 14 9586.96 9329.04 105.87 o
-4 7 -14 9733.01 9832.26 116.26 o
0 7 14 7416.86 7504.38 165.84 o
-7 7 -14 7132.52 8357.10 153.38 o
-8 8 14 35068.80 33774.70 191.57 o
0 8 -14 34535.00 40970.50 199.93 o
-5 8 14 21062.00 20745.20 125.36 o
-3 8 -14 21540.00 21720.60 135.85 o
-2 8 14 7330.76 7163.90 111.94 o
-6 8 -14 7342.15 7829.35 114.01 o
-7 9 14 4827.81 4344.47 115.91 o
-2 9 -14 4573.15 5181.99 128.31 o
-4 9 14 2192.18 2116.32 95.07 o
-5 9 -14 2129.68 2620.51 115.73 o
-1 9 14 863.19 817.80 111.52 o
-8 9 -14 760.18 1218.36 115.64 o
-6 10 14 8000.31 7692.29 116.11 o
-4 10 -14 7633.62 8727.20 126.45 o
-3 10 14 3239.15 2756.48 144.75 o
-7 10 -14 3141.11 3477.98 119.93 o
-1 2 15 48517.80 39027.10 119.00 o
-1 2 -15 49082.50 51599.20 129.67 o
-2 4 15 33451.00 30165.70 122.11 o
-2 4 -15 32837.30 36510.80 126.28 o
-4 5 15 31339.20 29202.10 126.12 o
-1 5 -15 30564.40 33925.10 132.37 o
-1 5 15 23599.00 22015.60 121.38 o
-4 5 -15 24130.90 26024.90 125.60 o
-3 6 15 108.02 148.63 105.28 <
-3 6 -15 99.85 210.55 97.02 <
-5 7 15 17034.90 16940.40 118.80 o
-2 7 -15 17376.70 19295.10 127.16 o
-2 7 15 20757.00 19897.80 129.49 o
-5 7 -15 20370.70 22470.30 135.73 o
-7 8 15 9356.67 8868.28 130.72 o
-1 8 -15 9227.83 10817.90 151.46 o
-4 8 15 13538.20 13864.70 110.24 o
-4 8 -15 13854.90 14880.20 122.74 o
-1 8 15 7918.37 8060.91 114.03 o
-7 8 -15 7949.43 8575.23 130.62 o
-1 1 16 754.08 505.94 132.16 o
0 1 -16 571.57 956.02 138.34 o
0 2 16 2781.26 2396.22 142.66 o
-2 2 -16 2988.97 3027.16 132.34 o
-2 3 16 100.14 97.02 97.02 <
-1 3 -16 99.12 381.89 92.89 o
-4 4 16 4952.66 4881.03 153.18 o
0 4 -16 5094.56 5570.78 155.26 o
-1 4 16 3161.78 2868.16 103.39 o
-3 4 -16 3191.80 3771.89 109.60 o
-3 5 16 4401.20 4041.37 111.74 o
-2 5 -16 4123.30 4984.19 113.79 o
0 5 16 8625.54 7319.85 174.23 o
-5 5 -16 8468.21 9430.55 180.44 o
-5 6 16 200.86 210.57 117.67 <
-1 6 -16 151.20 282.81 115.60 <
-2 6 16 1637.44 1824.32 111.57 o
-4 6 -16 1727.30 1931.85 119.84 o
-3 7 -16 5917.62 6589.78 198.81 o
-1 3 17 2408.49 2015.26 111.61 o
-2 3 -17 2428.89 2755.25 109.55 o
-1 4 -17 2393.47 2798.58 192.22 o
