#------------------------------------------------------------------------------
#$Date: 2021-05-18 19:36:50 +0300 (Tue, 18 May 2021) $
#$Revision: 265307 $
#$URL: file:///home/coder/svn-repositories/cod/cif/3/00/01/3000101.cif $
#------------------------------------------------------------------------------
#
# This file is available in the Crystallography Open Database (COD),
# http://www.crystallography.net/
#
# All data on this site have been placed in the public domain by the
# contributors.
#
data_3000101
loop_
_publ_author_name
'Bubnova, Rimma'
'Volkov, Sergey'
'Barbara Albert'
'Filatov, Stanislav'
_publ_section_title
;
 Borates--Crystal Structures of Prospective Nonlinear Optical Materials:
 High Anisotropy of the Thermal Expansion Caused by Anharmonic Atomic
 Vibrations
;
_journal_issue                   3
_journal_name_full               Crystals
_journal_page_first              93
_journal_paper_doi               10.3390/cryst7030093
_journal_volume                  7
_journal_year                    2017
_chemical_formula_sum            'B2 Ba O4'
_chemical_formula_weight         223
_space_group_IT_number           161
_symmetry_cell_setting           trigonal
_symmetry_Int_Tables_number      161
_symmetry_space_group_name_Hall  'R 3 -2"c'
_symmetry_space_group_name_H-M   'R 3 c :H'
_cell_angle_alpha                90
_cell_angle_beta                 90
_cell_angle_gamma                120
_cell_formula_units_Z            18
_cell_length_a                   12.5685(14)
_cell_length_b                   12.5685(14)
_cell_length_c                   12.7714(18)
_cell_measurement_temperature    298
_cell_volume                     1747.2(4)
_diffrn_ambient_temperature      298
_diffrn_measured_fraction_theta_full 0.99
_diffrn_measured_fraction_theta_max 0.99
_diffrn_measurement_device       'four-circle diffractometer'
_diffrn_measurement_device_type  'IPDS Stoe'
_diffrn_measurement_method       '??integration method??'
_diffrn_radiation_monochromator  graphite
_diffrn_radiation_probe          x-ray
_diffrn_radiation_source         'X-ray tube'
_diffrn_radiation_type           'Mo K\a'
_diffrn_radiation_wavelength     0.71073
_diffrn_reflns_av_R_equivalents  0.0824
_diffrn_reflns_av_unetI/netI     0.0039
_diffrn_reflns_limit_h_max       17
_diffrn_reflns_limit_h_min       -17
_diffrn_reflns_limit_k_max       16
_diffrn_reflns_limit_k_min       -17
_diffrn_reflns_limit_l_max       17
_diffrn_reflns_limit_l_min       -17
_diffrn_reflns_number            5177
_diffrn_reflns_theta_full        29.15
_diffrn_reflns_theta_max         29.15
_diffrn_reflns_theta_min         3.24
_exptl_absorpt_coefficient_mu    10.089
_exptl_crystal_density_diffrn    3.8142
_exptl_crystal_F_000             1764
_refine_diff_density_max         0.79
_refine_diff_density_min         -0.79
_refine_ls_abs_structure_details
'  516 of Friedel pairs used in the refinement'
_refine_ls_extinction_coef       3900(200)
_refine_ls_extinction_method
'B-C type 1 Gaussian isotropic (Becker & Coppens, 1974)'
_refine_ls_goodness_of_fit_gt    2.67
_refine_ls_goodness_of_fit_ref   2.66
_refine_ls_number_constraints    1
_refine_ls_number_parameters     65
_refine_ls_number_reflns         1041
_refine_ls_number_restraints     0
_refine_ls_R_factor_all          0.0244
_refine_ls_R_factor_gt           0.0242
_refine_ls_shift/su_max          0.0123
_refine_ls_shift/su_mean         0.0018
_refine_ls_structure_factor_coef F
_refine_ls_weighting_details     w=1/(\s^2^(F)+0.0001F^2^)
_refine_ls_weighting_scheme      sigma
_refine_ls_wR_factor_gt          0.0304
_refine_ls_wR_factor_ref         0.0305
_reflns_number_gt                1030
_reflns_number_total             1041
_reflns_threshold_expression     I>3\s(I)
_cod_data_source_file            b-BaB2O4_298K.cif
_cod_data_source_block           I
_cod_depositor_comments
;
The following automatic conversions were performed:

'_diffrn_radiation_probe' value 'X-ray' changed to 'x-ray' according
to the built-in table from CIF Core dictionary named 'cif_core.dic'
version 2.4.1 from 2010-06-29.

Automatic conversion script
Id: cif_fix_values 4624 2016-04-14 12:54:50Z antanas 

 Released structure into public domain as published material.

 Antanas Vaitkus,
 2021-05-18
;
_cod_original_sg_symbol_Hall     'R 3;-2"c'
_cod_original_sg_symbol_H-M      'R 3 c'
_cod_original_formula_sum        'B2 Ba1 O4'
_cod_database_code               3000101
loop_
_space_group_symop_id
_space_group_symop_operation_xyz
1 x,y,z
2 -y,x-y,z
3 -x+y,-x,z
4 -y,-x,z+1/2
5 -x+y,y,z+1/2
6 x,x-y,z+1/2
7 x+2/3,y+1/3,z+1/3
8 -y+2/3,x-y+1/3,z+1/3
9 -x+y+2/3,-x+1/3,z+1/3
10 -y+2/3,-x+1/3,z+5/6
11 -x+y+2/3,y+1/3,z+5/6
12 x+2/3,x-y+1/3,z+5/6
13 x+1/3,y+2/3,z+2/3
14 -y+1/3,x-y+2/3,z+2/3
15 -x+y+1/3,-x+2/3,z+2/3
16 -y+1/3,-x+2/3,z+1/6
17 -x+y+1/3,y+2/3,z+1/6
18 x+1/3,x-y+2/3,z+1/6
loop_
_atom_site_label
_atom_site_type_symbol
_atom_site_fract_x
_atom_site_fract_y
_atom_site_fract_z
_atom_site_adp_type
_atom_site_U_iso_or_equiv
_atom_site_site_symmetry_multiplicity
_atom_site_occupancy
_atom_site_calc_flag
_atom_site_refinement_flags
_atom_site_disorder_assembly
_atom_site_disorder_group
B1 B 0.0210(5) -0.1015(5) 0.2422(5) Uani 0.0154(19) 18 1 d . . .
B2 B 0.0421(6) -0.0873(6) 0.5031(5) Uani 0.017(2) 18 1 d . . .
Ba1 Ba 0.36080(2) 0.35774(2) 0.379938(15) Uani 0.01445(13) 18 1 d . . .
O1 O -0.0410(4) 0.0829(4) 0.5008(4) Uani 0.0223(15) 18 1 d . . .
O2 O 0.1636(4) 0.2493(4) 0.5088(4) Uani 0.0216(14) 18 1 d . . .
O3 O 0.1182(3) 0.0210(4) 0.2440(4) Uani 0.0215(14) 18 1 d . . .
O4 O 0.0460(4) 0.2383(3) 0.7350(3) Uani 0.0191(14) 18 1 d . . .
loop_
_atom_site_aniso_label
_atom_site_aniso_type_symbol
_atom_site_aniso_U_11
_atom_site_aniso_U_22
_atom_site_aniso_U_33
_atom_site_aniso_U_12
_atom_site_aniso_U_13
_atom_site_aniso_U_23
B1 B 0.011(3) 0.014(2) 0.021(2) 0.005(2) 0.0024(19) 0.0027(19)
B2 B 0.012(2) 0.015(2) 0.024(2) 0.006(2) -0.001(2) -0.003(2)
Ba1 Ba 0.01057(17) 0.01107(19) 0.02176(17) 0.00545(10) -0.00051(14)
-0.00003(15)
O1 O 0.0129(18) 0.0125(17) 0.043(2) 0.0071(14) 0.0000(16) 0.0010(16)
O2 O 0.0159(17) 0.0144(17) 0.034(2) 0.0074(14) 0.0071(16) 0.0029(15)
O3 O 0.0108(16) 0.0091(18) 0.045(2) 0.0054(14) 0.0000(15) -0.0001(15)
O4 O 0.0177(17) 0.0118(17) 0.0264(17) 0.0064(15) 0.0022(14) -0.0017(14)
loop_
_atom_type_symbol
_atom_type_scat_dispersion_real
_atom_type_scat_dispersion_imag
_atom_type_scat_source
B 0.0013 0.0007 'International Tables Vol C tables 4.2.6.8 and 6.1.1.1'
Ba -0.3244 2.2819 'International Tables Vol C tables 4.2.6.8 and 6.1.1.1'
O 0.0106 0.0060 'International Tables Vol C tables 4.2.6.8 and 6.1.1.1'
loop_
_geom_angle_atom_site_label_1
_geom_angle_atom_site_label_2
_geom_angle_atom_site_label_3
_geom_angle_site_symmetry_1
_geom_angle_site_symmetry_2
_geom_angle_site_symmetry_3
_geom_angle
B2 O1 B2 2_555 . 3_555 124.4(7)
B1 O3 B1 . . 2_555 123.8(5)
loop_
_geom_bond_atom_site_label_1
_geom_bond_atom_site_label_2
_geom_bond_site_symmetry_1
_geom_bond_site_symmetry_2
_geom_bond_distance
O1 B2 . 2_555 1.415(8)
O1 B2 . 3_555 1.400(7)
O2 B2 . 2_555 1.323(9)
O3 B1 . . 1.408(6)
O3 B1 . 2_555 1.393(11)
O4 B1 . 6_555 1.329(10)
loop_
_refln_index_h
_refln_index_k
_refln_index_l
_refln_F_squared_calc
_refln_F_squared_meas
_refln_F_squared_sigma
_refln_observed_status
-1 2 0 67005.00 81715.50 256.04 o
-2 4 0 178394.00 139898.00 676.63 o
-1 5 0 146040.00 179794.00 254.74 o
-4 5 0 152215.00 119319.00 514.22 o
-3 6 0 225417.00 213386.00 356.93 o
0 6 0 151530.00 172247.00 233.33 o
-6 6 0 149452.00 139577.00 325.86 o
-2 7 0 68564.50 73392.10 115.37 o
-5 7 0 71072.00 70807.10 139.40 o
-4 8 0 74991.00 76723.40 128.20 o
-1 8 0 22360.40 24253.90 71.27 o
-7 8 0 21057.10 19542.40 100.62 o
-3 9 0 129265.00 137556.00 144.20 o
-6 9 0 128648.00 125288.00 168.60 o
0 9 0 60939.80 63756.10 136.65 o
-9 9 0 59048.70 52223.60 189.48 o
-5 10 0 542.98 1163.95 60.00 o
-2 10 0 196.24 539.79 52.78 o
-8 10 0 70.84 199.10 79.16 <
-4 11 0 17293.40 17291.50 75.43 o
-7 11 0 16745.60 15654.10 82.70 o
-1 11 0 6971.66 7530.78 57.87 o
-10 11 0 6731.18 6085.25 84.38 o
-6 12 0 8780.17 8954.55 72.45 o
-3 12 0 4951.18 5250.68 60.19 o
-9 12 0 5601.49 5648.21 89.12 o
0 12 0 1269.13 1236.36 88.83 o
-12 12 0 1364.70 1123.60 134.45 o
-5 13 0 2952.34 3266.57 72.11 o
-8 13 0 2960.40 2898.83 76.92 o
-2 13 0 1147.56 1473.90 57.61 o
-11 13 0 1317.41 1258.00 86.43 o
-7 14 0 17588.00 17284.70 84.93 o
-4 14 0 11243.60 11457.00 72.48 o
-10 14 0 11381.10 10368.30 89.40 o
-1 14 0 1718.04 2055.40 72.04 o
-13 14 0 2024.45 1733.97 91.26 o
-6 15 0 1056.84 1317.73 67.21 o
-9 15 0 976.53 1092.06 86.40 o
-3 15 0 3842.62 3839.51 74.53 o
-12 15 0 3899.89 3560.75 91.36 o
-8 16 0 12593.40 12255.10 96.67 o
-5 16 0 17268.10 17484.70 89.65 o
-11 16 0 17744.30 15725.00 106.64 o
-7 17 0 10842.30 10593.50 96.55 o
-10 17 0 10560.70 9957.14 111.01 o
-2 3 1 18206.40 18573.40 114.21 o
-1 3 -1 17681.30 18376.60 124.17 o
-1 4 1 55254.80 61295.60 152.00 o
-3 4 -1 57955.70 62577.20 155.60 o
-3 5 1 15708.80 16515.70 79.12 o
-2 5 -1 13690.90 13753.00 93.59 o
-5 6 1 76639.50 72179.20 171.43 o
-1 6 -1 79139.40 87251.80 123.64 o
-2 6 1 169863.00 199809.00 232.33 o
-4 6 -1 166598.00 170071.00 359.22 o
-4 7 1 38955.60 39643.20 91.00 o
-3 7 -1 36635.80 35785.10 105.84 o
-1 7 1 97034.70 105549.00 134.78 o
-6 7 -1 100193.00 98148.10 159.62 o
-6 8 1 12210.50 11273.50 97.29 o
-2 8 -1 12251.90 12692.10 60.81 o
-3 8 1 6447.64 6583.88 62.84 o
-5 8 -1 6806.41 6589.07 79.79 o
-8 9 1 18117.10 16814.10 97.60 o
-1 9 -1 19673.30 20721.30 65.98 o
-5 9 1 90741.80 91452.40 134.00 o
-4 9 -1 92458.50 91700.50 147.38 o
-2 9 1 164649.00 180603.00 167.54 o
-7 9 -1 160395.00 155358.00 189.19 o
-7 10 1 25580.00 24403.00 95.73 o
-3 10 -1 22812.50 23410.10 75.90 o
-4 10 1 106584.00 111013.00 129.17 o
-6 10 -1 110209.00 107418.00 156.01 o
-1 10 1 128135.00 139735.00 130.18 o
-9 10 -1 129439.00 116284.00 183.50 o
-9 11 1 19504.10 16812.60 102.29 o
-2 11 -1 18889.70 19212.20 70.60 o
-6 11 1 5415.78 5185.50 65.06 o
-5 11 -1 4813.81 4631.36 62.62 o
-3 11 1 2583.23 2668.12 60.09 o
-8 11 -1 2862.16 2649.49 69.72 o
-11 12 1 5942.08 5433.67 91.52 o
-1 12 -1 6294.22 6598.60 65.05 o
-8 12 1 27240.30 26672.80 100.37 o
-4 12 -1 28029.00 29980.20 80.83 o
-5 12 1 84473.30 85815.50 130.21 o
-7 12 -1 81864.60 80505.30 122.32 o
-2 12 1 108973.00 113579.00 118.90 o
-10 12 -1 107896.00 93891.10 170.48 o
-10 13 1 11243.30 10612.90 87.01 o
-3 13 -1 11605.60 12232.80 70.11 o
-7 13 1 59520.80 56912.30 122.47 o
-6 13 -1 58711.30 59064.50 109.92 o
-4 13 1 96321.40 100595.00 133.00 o
-9 13 -1 98453.70 84364.30 163.91 o
-1 13 1 97156.20 100651.00 119.72 o
-12 13 -1 96337.00 83554.70 168.03 o
-12 14 1 1660.50 1527.12 84.04 o
-2 14 -1 1796.17 1757.78 69.64 o
-9 14 1 1929.20 1729.22 84.06 o
-5 14 -1 1985.27 1858.98 64.85 o
-6 14 1 2476.70 2392.97 79.29 o
-8 14 -1 2539.81 2520.42 74.48 o
-3 14 1 649.16 746.29 64.79 o
-11 14 -1 601.57 827.85 93.58 o
-14 15 1 2630.71 2700.23 98.50 o
-1 15 -1 2481.80 2707.20 86.48 o
-11 15 1 4675.32 4315.45 96.22 o
-4 15 -1 4616.07 4661.67 69.76 o
-8 15 1 32762.00 31661.60 107.69 o
-7 15 -1 32194.40 32005.50 95.42 o
-5 15 1 55860.10 56540.80 111.63 o
-10 15 -1 57658.20 52525.40 129.13 o
-2 15 1 72618.00 74687.20 122.53 o
-13 15 -1 73858.20 64791.80 167.66 o
-13 16 1 9086.39 8256.11 113.33 o
-3 16 -1 9216.75 9373.22 86.81 o
-10 16 1 10841.50 9480.09 106.22 o
-6 16 -1 11089.70 11350.20 79.68 o
-7 16 1 41412.10 39901.50 132.71 o
-9 16 -1 41475.80 39807.10 125.34 o
-4 16 1 51978.20 53965.90 116.14 o
-12 16 -1 50534.30 46246.30 140.73 o
-9 17 1 2537.84 2346.93 96.09 o
-8 17 -1 2105.73 2046.15 79.25 o
0 1 2 12479.50 12821.40 172.30 o
-1 1 -2 12513.70 11824.80 162.19 o
-2 2 2 23930.00 26038.60 199.66 o
0 2 -2 24592.00 25963.00 202.67 o
-1 3 2 1856.43 2377.37 98.86 o
-2 3 -2 1775.37 2367.20 81.96 o
-3 4 2 33036.20 34061.20 126.07 o
-1 4 -2 32689.80 34708.00 120.83 o
0 4 2 59560.30 68309.30 220.25 o
-4 4 -2 57036.00 62123.80 205.88 o
-5 5 2 173554.00 157812.00 468.49 o
0 5 -2 178209.00 193806.00 356.58 o
-2 5 2 61515.60 68313.30 144.34 o
-3 5 -2 59308.20 59879.40 157.12 o
-4 6 2 17338.80 17438.20 86.19 o
-2 6 -2 18299.30 18802.40 86.32 o
-1 6 2 3538.11 3843.25 65.10 o
-5 6 -2 3999.83 4205.33 65.14 o
-6 7 2 41469.70 38435.20 126.10 o
-1 7 -2 40614.40 43009.40 93.22 o
-3 7 2 40503.40 42567.80 98.62 o
-4 7 -2 41824.10 41768.00 116.52 o
0 7 2 54705.20 58853.20 163.24 o
-7 7 -2 54551.80 55051.20 155.56 o
-8 8 2 203897.00 177495.00 439.23 o
0 8 -2 207202.00 228034.00 272.38 o
-5 8 2 118885.00 118984.00 155.57 o
-3 8 -2 117645.00 125585.00 163.55 o
-2 8 2 51986.70 55349.00 104.08 o
-6 8 -2 51998.60 50249.60 121.85 o
-7 9 2 46079.00 42946.70 117.83 o
-2 9 -2 45667.20 47571.20 92.72 o
-4 9 2 8648.50 8966.25 65.34 o
-5 9 -2 9089.84 9045.35 77.48 o
-1 9 2 5288.78 5180.25 62.67 o
-8 9 -2 5688.52 5056.79 72.34 o
-9 10 2 54509.60 49597.30 132.89 o
-1 10 -2 51819.40 55276.00 95.07 o
-6 10 2 37756.50 36467.00 109.19 o
-4 10 -2 40014.30 41062.80 101.95 o
-3 10 2 35140.40 36453.30 86.60 o
-7 10 -2 35457.30 33226.10 103.95 o
0 10 2 12298.20 13238.80 92.04 o
-10 10 -2 10925.40 9926.90 137.91 o
-11 11 2 168665.00 154690.00 300.91 o
0 11 -2 169438.00 183154.00 228.48 o
-8 11 2 151785.00 144668.00 182.92 o
-3 11 -2 151877.00 160802.00 150.65 o
-5 11 2 78129.30 80188.90 127.71 o
-6 11 -2 73937.10 72666.40 134.93 o
-2 11 2 24009.20 25603.60 80.64 o
-9 11 -2 25189.70 23124.70 90.49 o
-10 12 2 46413.20 43154.40 116.45 o
-2 12 -2 44965.80 46752.60 94.05 o
-7 12 2 15232.20 14664.80 84.92 o
-5 12 -2 16272.80 16970.90 75.28 o
-4 12 2 8007.92 8356.30 67.56 o
-8 12 -2 8741.47 8223.24 84.50 o
-1 12 2 807.09 907.20 60.00 o
-11 12 -2 862.17 756.03 96.00 o
-12 13 2 30641.20 28172.40 110.05 o
-1 13 -2 31231.60 31842.60 90.52 o
-9 13 2 33617.40 31413.40 110.43 o
-4 13 -2 34467.50 36388.70 90.85 o
-6 13 2 19806.60 19380.70 94.85 o
-7 13 -2 19533.50 19014.80 87.54 o
-3 13 2 2753.35 2854.90 67.29 o
-10 13 -2 2759.78 2653.05 86.51 o
0 13 2 4620.54 4861.62 101.03 o
-13 13 -2 4878.24 4325.87 134.73 o
-14 14 2 78626.40 73741.50 210.77 o
0 14 -2 76409.50 78006.30 187.96 o
-11 14 2 111345.00 104223.00 166.73 o
-3 14 -2 112868.00 114904.00 133.50 o
-8 14 2 79907.90 77524.00 141.31 o
-6 14 -2 80446.80 81924.10 118.64 o
-5 14 2 31332.50 31610.20 110.13 o
-9 14 -2 30340.20 28525.70 107.62 o
-2 14 2 1568.70 1810.35 67.23 o
-12 14 -2 1780.45 1690.52 98.45 o
-13 15 2 18559.20 17917.00 101.84 o
-2 15 -2 18705.20 19383.30 92.15 o
-10 15 2 21353.20 20557.90 114.21 o
-5 15 -2 22258.60 22876.50 87.53 o
-7 15 2 20992.00 20578.70 106.92 o
-8 15 -2 20089.70 19802.30 85.00 o
-4 15 2 8767.24 9185.04 81.99 o
-11 15 -2 8929.34 7823.36 110.93 o
-1 15 2 586.79 693.45 76.78 o
-14 15 -2 574.59 489.49 115.17 o
-12 16 2 14571.50 13546.30 111.27 o
-4 16 -2 14706.10 15160.90 89.51 o
-9 16 2 6928.04 6481.36 103.57 o
-7 16 -2 6572.62 6622.07 79.46 o
-6 16 2 2726.66 2664.41 100.91 o
-10 16 -2 2722.50 2558.69 93.70 o
-3 16 2 2803.65 3075.25 86.49 o
-13 16 -2 2464.46 2130.64 115.30 o
-8 17 2 20409.20 19475.20 128.62 o
-9 17 -2 21210.00 21249.20 101.97 o
-1 5 3 327367.00 370584.00 737.46 o
-3 6 3 8655.88 9473.93 80.16 o
-3 6 -3 8562.51 9363.34 82.58 o
-5 7 3 128316.00 136082.00 183.67 o
-2 7 -3 124395.00 130330.00 166.27 o
-2 7 3 114816.00 122049.00 181.00 o
-5 7 -3 116722.00 127012.00 170.38 o
-7 8 3 80681.80 78638.20 150.73 o
-1 8 -3 82055.80 86027.40 119.70 o
-4 8 3 63672.00 65198.80 125.97 o
-4 8 -3 62082.80 63588.40 125.75 o
-1 8 3 65810.50 69828.70 122.97 o
-7 8 -3 65598.50 65160.50 120.38 o
-6 9 3 1610.26 1691.33 64.87 o
-3 9 -3 2042.13 2228.03 69.70 o
-3 9 3 5593.72 5855.98 72.36 o
-6 9 -3 5274.37 5044.02 79.57 o
-8 10 3 36557.80 34647.60 106.34 o
-2 10 -3 33412.10 34042.50 83.87 o
-5 10 3 41477.50 41603.60 104.50 o
-5 10 -3 41525.00 42187.50 106.99 o
-2 10 3 37690.10 39662.70 89.11 o
-8 10 -3 42061.40 39161.60 111.79 o
-10 11 3 5794.45 5506.83 74.68 o
-1 11 -3 5951.31 6256.73 62.64 o
-7 11 3 10234.80 9586.79 82.23 o
-4 11 -3 12057.90 12395.70 67.82 o
-4 11 3 18062.90 18668.10 85.18 o
-7 11 -3 16802.20 16184.20 94.82 o
-1 11 3 9868.20 10609.30 67.65 o
-10 11 -3 9134.53 8307.09 94.18 o
-9 12 3 3378.43 3347.07 76.94 o
-3 12 -3 4190.06 4369.13 64.96 o
-6 12 3 11032.70 11151.60 87.07 o
-6 12 -3 10906.30 11114.30 77.38 o
-3 12 3 4421.24 4889.62 69.78 o
-9 12 -3 3821.57 3720.95 81.78 o
-11 13 3 3168.97 3175.17 79.32 o
-2 13 -3 3293.71 3276.39 67.31 o
-8 13 3 14314.30 13497.00 94.47 o
-5 13 -3 14030.80 14325.10 77.50 o
-5 13 3 16251.20 16978.30 87.32 o
-8 13 -3 16437.50 15901.00 87.33 o
-2 13 3 2989.30 3278.14 74.50 o
-11 13 -3 2810.84 2585.68 93.72 o
-13 14 3 1739.07 1704.83 93.65 o
-1 14 -3 1756.52 1860.93 74.44 o
-10 14 3 1767.54 1791.41 86.45 o
-4 14 -3 1799.82 1925.93 74.44 o
-7 14 3 3016.44 3246.96 81.71 o
-7 14 -3 3082.64 3189.41 69.70 o
-4 14 3 1954.20 2305.58 79.25 o
-10 14 -3 1818.78 2017.21 81.65 o
-1 14 3 3296.98 3436.88 79.31 o
-13 14 -3 3177.16 2732.48 110.55 o
-12 15 3 7596.69 7368.22 98.79 o
-3 15 -3 7382.16 7552.79 81.91 o
-9 15 3 17950.40 17613.10 109.13 o
-6 15 -3 17406.60 17498.20 87.27 o
-6 15 3 21231.90 22092.30 111.77 o
-9 15 -3 21585.00 21314.40 94.78 o
-3 15 3 3010.35 3203.14 76.89 o
-12 15 -3 3073.91 2804.36 98.53 o
-11 16 3 2920.81 2746.36 103.32 o
-5 16 -3 3073.23 3020.54 81.70 o
-8 16 3 1375.14 1284.33 108.03 o
-8 16 -3 1129.20 1185.73 81.61 o
-5 16 3 1119.11 1248.12 105.61 o
-11 16 -3 939.33 890.39 108.00 o
-1 1 4 182046.00 175384.00 633.32 o
0 1 -4 183301.00 170075.00 627.70 o
0 2 4 22406.80 22891.30 161.13 o
-2 2 -4 19301.40 17948.60 150.07 o
-2 3 4 3367.41 3796.29 79.69 o
-1 3 -4 3556.24 4053.80 79.72 o
-4 4 4 22720.40 23360.60 129.37 o
0 4 -4 23812.60 22282.00 139.56 o
-1 4 4 14334.00 13661.60 88.50 o
-3 4 -4 14272.10 14304.30 83.58 o
-3 5 4 71981.00 72854.80 160.00 o
-2 5 -4 71595.50 76512.00 138.59 o
0 5 4 155659.00 171558.00 315.98 o
-5 5 -4 161558.00 179344.00 324.04 o
-5 6 4 20526.20 21803.00 93.56 o
-1 6 -4 20370.10 21215.30 83.70 o
-2 6 4 12068.40 12246.30 85.31 o
-4 6 -4 9918.69 10376.30 70.49 o
-7 7 4 44670.40 45089.90 170.84 o
0 7 -4 42513.40 44184.10 135.37 o
-4 7 4 17951.40 17953.60 88.21 o
-3 7 -4 17830.30 17975.60 83.30 o
-1 7 4 28518.90 28529.10 99.02 o
-6 7 -4 28339.70 28122.50 91.58 o
-6 8 4 33193.80 33834.70 104.20 o
-2 8 -4 32864.70 33682.20 91.76 o
-3 8 4 119508.00 125096.00 175.70 o
-5 8 -4 121531.00 129231.00 170.62 o
0 8 4 149977.00 159362.00 273.55 o
-8 8 -4 148139.00 151045.00 248.55 o
-8 9 4 3882.34 3725.84 74.61 o
-1 9 -4 3266.98 3322.10 60.14 o
-5 9 4 13369.00 13869.60 92.32 o
-4 9 -4 13537.10 14197.40 77.75 o
-2 9 4 67451.10 70792.20 147.73 o
-7 9 -4 67884.90 66025.90 129.95 o
-10 10 4 10952.90 10535.40 111.26 o
0 10 -4 11618.10 11750.60 99.21 o
-7 10 4 50398.70 49522.40 127.56 o
-3 10 -4 51744.70 53152.00 105.16 o
-4 10 4 53942.80 58148.10 133.05 o
-6 10 -4 54282.40 57210.10 130.58 o
-1 10 4 53090.00 56021.20 119.98 o
-9 10 -4 52645.90 48878.70 124.93 o
-9 11 4 14323.30 14345.00 89.70 o
-2 11 -4 14554.60 15346.50 75.17 o
-6 11 4 67475.60 68545.30 138.97 o
-5 11 -4 67902.30 68519.10 121.32 o
-3 11 4 123512.00 130258.00 154.90 o
-8 11 -4 121335.00 121187.00 165.15 o
0 11 4 154403.00 162793.00 262.70 o
-11 11 -4 153167.00 133044.00 299.62 o
-11 12 4 126.93 314.25 76.76 o
-1 12 -4 63.25 340.62 69.56 o
-8 12 4 6519.21 6318.83 84.35 o
-4 12 -4 6072.69 6367.40 65.05 o
-5 12 4 17985.40 18762.80 94.77 o
-7 12 -4 17975.90 18390.90 97.20 o
-2 12 4 29580.40 30697.80 100.34 o
-10 12 -4 31206.00 27325.70 100.45 o
-13 13 4 2840.18 2965.08 117.74 o
0 13 -4 2452.54 2527.17 105.70 o
-10 13 4 4968.11 4642.10 86.63 o
-3 13 -4 4452.87 4462.52 69.76 o
-7 13 4 13307.00 13087.10 111.34 o
-6 13 -4 13416.20 13354.30 84.72 o
-4 13 4 22387.70 23838.40 99.81 o
-9 13 -4 22358.40 21970.70 97.38 o
-1 13 4 24796.10 25653.80 90.12 o
-12 13 -4 24488.20 22203.00 109.59 o
-12 14 4 4359.41 4304.96 88.99 o
-2 14 -4 4186.29 4540.18 79.36 o
-9 14 4 30034.40 29602.60 129.55 o
-5 14 -4 30219.30 30796.50 95.34 o
-6 14 4 74813.80 76106.20 163.32 o
-8 14 -4 75255.20 75716.70 165.88 o
-3 14 4 105589.00 109710.00 145.54 o
-11 14 -4 106041.00 99789.80 183.89 o
0 14 4 98413.60 101621.00 197.73 o
-14 14 -4 100542.00 88835.60 248.71 o
-14 15 4 557.52 607.06 235.15 <
-1 15 -4 837.28 499.16 163.19 o
-11 15 4 6676.17 6422.73 103.55 o
-4 15 -4 6751.04 6962.48 79.47 o
-8 15 4 10374.10 10541.20 103.79 o
-7 15 -4 10714.40 9920.48 84.50 o
-5 15 4 18744.10 19374.40 97.03 o
-10 15 -4 18563.60 18292.90 114.00 o
-2 15 4 16260.70 16545.00 89.59 o
-13 15 -4 15569.00 14197.90 116.18 o
-10 16 4 2965.25 3178.93 132.15 o
-6 16 -4 2769.14 2794.16 79.28 o
-7 16 4 4840.12 4885.52 105.84 o
-9 16 -4 4675.68 4894.67 86.59 o
-4 16 4 16666.70 16295.50 94.45 o
-12 16 -4 16791.80 13717.30 135.62 o
-1 3 5 32597.50 32362.70 119.06 o
-2 3 -5 33515.90 30830.70 114.17 o
-3 4 5 36033.60 30020.60 113.91 o
-1 4 -5 36823.20 35936.90 114.04 o
-2 5 5 16541.90 16055.80 90.79 o
-3 5 -5 16341.70 16777.60 83.41 o
-4 6 5 70286.30 69070.70 146.01 o
-2 6 -5 66743.00 65366.60 140.22 o
-1 6 5 29166.60 28978.90 101.77 o
-5 6 -5 31056.30 30977.40 114.43 o
-6 7 5 101097.00 104644.00 169.91 o
-1 7 -5 100421.00 101557.00 143.27 o
-3 7 5 33049.30 33111.80 106.96 o
-4 7 -5 33580.30 35358.30 97.06 o
-5 8 5 4672.61 4492.05 69.89 o
-3 8 -5 4786.33 4702.25 72.31 o
-2 8 5 14249.90 14055.10 89.99 o
-6 8 -5 13121.80 13578.20 80.17 o
-7 9 5 123982.00 129959.00 170.18 o
-2 9 -5 121582.00 125610.00 156.59 o
-4 9 5 83575.20 87002.20 131.67 o
-5 9 -5 83924.70 86237.70 139.46 o
-1 9 5 15181.60 15490.30 85.03 o
-8 9 -5 15679.00 15620.70 80.21 o
-9 10 5 89844.80 91650.50 158.93 o
-1 10 -5 93977.20 99311.80 120.84 o
-6 10 5 90609.20 93450.10 144.41 o
-4 10 -5 93534.40 96808.20 142.15 o
-3 10 5 24215.50 24913.50 88.06 o
-7 10 -5 22132.30 22312.80 90.35 o
-8 11 5 4001.28 3895.04 93.83 o
-3 11 -5 4186.40 4220.41 72.18 o
-5 11 5 1254.31 1202.89 64.83 o
-6 11 -5 1171.09 1274.84 64.82 o
-2 11 5 3062.99 3283.88 72.12 o
-9 11 -5 2761.23 2732.76 76.91 o
-10 12 5 95254.70 95320.00 170.94 o
-2 12 -5 93398.80 98127.60 124.87 o
-7 12 5 72828.50 74614.90 128.63 o
-5 12 -5 71560.20 73709.90 126.00 o
-4 12 5 31644.40 33095.10 95.62 o
-8 12 -5 34108.10 34663.70 103.15 o
-1 12 5 5331.83 5459.17 84.25 o
-11 12 -5 5184.32 4784.73 81.83 o
-12 13 5 80782.10 80546.90 163.62 o
-1 13 -5 81077.60 84193.60 123.36 o
-9 13 5 70412.10 70641.80 150.51 o
-4 13 -5 69170.00 72645.50 115.31 o
-6 13 5 37421.40 38689.40 105.71 o
-7 13 -5 37751.60 38046.00 108.19 o
-3 13 5 9778.34 9766.07 84.48 o
-10 13 -5 9189.62 8939.62 103.75 o
-11 14 5 56.59 83.96 100.75 <
-3 14 -5 77.01 213.49 74.36 <
-8 14 5 1691.94 1709.67 86.44 o
-6 14 -5 1827.14 2012.39 72.04 o
-5 14 5 2818.85 2900.29 81.70 o
-9 14 -5 2787.43 2374.01 79.29 o
-2 14 5 2514.60 2544.02 81.68 o
-12 14 -5 2316.98 2092.14 105.69 o
-13 15 5 66430.10 63945.70 174.30 o
-2 15 -5 67180.70 68396.10 129.53 o
-10 15 5 42442.90 42370.40 135.25 o
-5 15 -5 41823.60 42139.00 108.16 o
-7 15 5 22180.30 23171.40 106.95 o
-8 15 -5 22419.30 21704.00 102.10 o
-4 15 5 3321.79 3669.95 88.92 o
-11 15 -5 3046.79 3147.91 88.91 o
-9 16 5 44112.70 44034.80 147.59 o
-7 16 -5 43686.40 43780.80 108.21 o
-6 16 5 9970.65 10253.20 113.39 o
-10 16 -5 10626.90 10363.30 108.61 o
-1 2 6 103542.00 94572.60 164.93 o
-1 2 -6 103340.00 89462.90 162.09 o
-2 4 6 83968.50 83003.80 149.85 o
-2 4 -6 82760.40 79831.20 149.62 o
-4 5 6 65163.70 64833.70 134.67 o
-1 5 -6 65383.70 65611.40 134.70 o
-1 5 6 50285.40 48074.30 124.76 o
-4 5 -6 51830.60 53146.30 117.33 o
-6 6 6 122547.00 129660.00 259.82 o
0 6 -6 118467.00 115610.00 239.96 o
-3 6 6 177476.00 179759.00 219.35 o
-3 6 -6 181140.00 181474.00 225.90 o
0 6 6 160179.00 165806.00 282.90 o
-6 6 -6 159484.00 169952.00 282.73 o
-5 7 6 25405.20 24059.10 95.97 o
-2 7 -6 24833.60 24645.50 86.08 o
-2 7 6 33606.60 33109.20 109.16 o
-5 7 -6 34238.80 35522.90 96.81 o
-7 8 6 20873.80 20996.90 97.73 o
-1 8 -6 21712.90 22217.70 83.13 o
-4 8 6 41872.50 41842.30 117.21 o
-4 8 -6 41497.00 42623.20 109.69 o
-1 8 6 19306.30 19636.00 87.84 o
-7 8 -6 19099.30 18849.40 107.33 o
-9 9 6 31411.90 31781.50 167.08 o
0 9 -6 30236.00 31387.50 125.20 o
-6 9 6 67443.40 69051.00 126.85 o
-3 9 -6 68646.80 70974.30 124.43 o
-3 9 6 61482.00 61836.40 128.76 o
-6 9 -6 61925.60 65558.70 118.71 o
0 9 6 43310.40 44915.80 163.62 o
-9 9 -6 40859.60 40522.90 153.42 o
-8 10 6 867.20 955.30 110.41 o
-2 10 -6 1084.60 1370.77 69.62 o
-5 10 6 3980.46 4028.15 67.38 o
-5 10 -6 3595.18 3634.81 69.76 o
-2 10 6 1192.31 1397.30 74.43 o
-8 10 -6 1477.19 1798.63 67.24 o
-10 11 6 4201.08 4024.51 89.01 o
-1 11 -6 4697.30 5036.55 69.79 o
-7 11 6 25227.30 26211.10 92.83 o
-4 11 -6 24436.10 24643.30 90.34 o
-4 11 6 15899.10 16229.30 80.08 o
-7 11 -6 14476.40 14949.60 87.27 o
-1 11 6 3951.33 3994.96 86.59 o
-10 11 -6 4375.21 4308.88 79.39 o
-12 12 6 2047.13 1979.02 136.90 o
0 12 -6 2172.25 2490.79 96.08 o
-9 12 6 7524.49 7427.60 96.43 o
-3 12 -6 7255.43 7472.06 67.49 o
-6 12 6 6598.65 6477.05 84.34 o
-6 12 -6 7151.66 7477.47 79.55 o
-3 12 6 3883.95 3975.33 76.96 o
-9 12 -6 3609.06 3695.68 76.94 o
0 12 6 847.48 1183.17 115.20 o
-12 12 -6 1094.53 993.73 139.22 o
-11 13 6 2054.79 2108.71 108.08 o
-2 13 -6 1916.94 2070.11 72.05 o
-8 13 6 2065.78 2286.58 88.87 o
-5 13 -6 2343.13 2611.31 74.47 o
-5 13 6 3821.41 4032.52 79.35 o
-8 13 -6 4045.28 4167.78 76.96 o
-2 13 6 1278.24 1308.31 76.82 o
-11 13 -6 1164.23 1224.20 86.41 o
-13 14 6 152.24 259.08 105.55 <
-1 14 -6 102.25 340.63 76.76 o
-10 14 6 5885.77 5892.95 105.92 o
-4 14 -6 5561.92 5824.40 81.83 o
-7 14 6 9377.03 9604.52 89.27 o
-7 14 -6 10104.20 10224.30 96.55 o
-4 14 6 8197.93 8362.44 91.60 o
-10 14 -6 8221.15 7993.72 94.02 o
-1 14 6 1213.74 1423.42 86.41 o
-13 14 -6 1322.23 1164.25 132.03 o
-12 15 6 2243.95 2332.13 117.69 o
-3 15 -6 2470.07 2666.33 84.07 o
-9 15 6 527.44 818.20 100.78 o
-6 15 -6 537.80 686.24 74.38 o
-6 15 6 236.00 343.06 86.36 o
-9 15 -6 227.86 328.66 81.57 o
-3 15 6 1336.31 1514.73 93.62 o
-12 15 -6 1576.08 1543.75 98.44 o
-8 16 6 16433.20 16540.50 121.07 o
-8 16 -6 15493.50 15123.10 91.96 o
-2 3 7 7029.16 6336.68 70.19 o
-1 3 -7 6713.94 5842.98 70.16 o
-1 4 7 26155.80 22837.50 98.96 o
-3 4 -7 27875.10 25166.30 99.16 o
-3 5 7 9347.16 9084.73 75.14 o
-2 5 -7 8342.04 8018.93 72.64 o
-5 6 7 38361.30 37023.40 127.06 o
-1 6 -7 40946.60 38482.40 112.39 o
-2 6 7 102110.00 100739.00 164.41 o
-4 6 -7 99716.40 102026.00 148.17 o
-4 7 7 26796.70 26042.70 100.87 o
-3 7 -7 26506.10 27405.60 88.55 o
-1 7 7 64634.30 64157.00 129.58 o
-6 7 -7 64599.00 67298.00 129.58 o
-6 8 7 10126.30 10496.50 77.43 o
-2 8 -7 9761.53 10120.70 70.15 o
-3 8 7 2397.36 2432.58 84.13 o
-5 8 -7 2588.31 2740.72 64.91 o
-8 9 7 17924.50 17851.50 107.00 o
-1 9 -7 19036.00 19105.30 85.18 o
-5 9 7 46958.40 47762.20 109.60 o
-4 9 -7 46692.10 47433.40 109.57 o
-2 9 7 99839.30 102143.00 150.10 o
-7 9 -7 97296.90 101569.00 147.24 o
-7 10 7 24262.90 24954.30 97.69 o
-3 10 -7 22036.50 22382.70 85.34 o
-4 10 7 43996.80 45056.00 101.62 o
-6 10 -7 45859.20 46328.60 116.65 o
-1 10 7 85461.70 87078.00 142.45 o
-9 10 -7 89234.90 89422.80 145.36 o
-9 11 7 9726.70 9518.17 108.65 o
-2 11 -7 9472.47 9671.04 70.01 o
-6 11 7 4259.92 4321.07 72.18 o
-5 11 -7 3915.14 4024.15 79.38 o
-3 11 7 1507.59 1918.55 74.44 o
-8 11 -7 1591.29 1695.33 72.04 o
-11 12 7 4585.14 4481.54 115.47 o
-1 12 -7 4568.32 4924.10 76.98 o
-8 12 7 14045.80 14566.80 92.00 o
-4 12 -7 15262.70 15942.50 84.80 o
-5 12 7 61038.00 63852.20 122.30 o
-7 12 -7 59621.00 60892.00 124.69 o
-2 12 7 80566.90 82189.30 128.59 o
-10 12 -7 79354.50 76458.10 156.21 o
-10 13 7 7416.07 7375.93 106.02 o
-3 13 -7 7432.78 7841.07 72.29 o
-7 13 7 38555.30 39287.70 110.57 o
-6 13 -7 38837.30 38323.80 110.59 o
-4 13 7 68084.60 70492.30 130.01 o
-9 13 -7 68158.60 67430.00 140.01 o
-1 13 7 64160.90 66198.60 126.98 o
-12 13 -7 63743.80 60278.30 164.29 o
-12 14 7 1690.05 1651.91 120.05 o
-2 14 -7 1589.07 1853.49 84.03 o
-9 14 7 1186.29 1171.39 91.21 o
-5 14 -7 1177.18 1298.60 74.41 o
-6 14 7 1315.19 1387.54 91.22 o
-8 14 -7 1417.39 1687.71 84.03 o
-3 14 7 506.91 614.24 83.98 o
-11 14 -7 518.52 628.64 93.58 o
-11 15 7 4303.60 4325.94 115.42 o
-4 15 -7 4223.05 4318.53 88.97 o
-8 15 7 20330.00 20891.00 121.36 o
-7 15 -7 20316.20 20626.30 101.94 o
-5 15 7 44097.40 45830.90 125.46 o
-10 15 -7 44742.50 42148.90 132.88 o
0 1 8 16283.60 16144.60 114.97 o
-1 1 -8 15628.60 14560.30 117.32 o
-2 2 8 25580.80 23640.50 126.01 o
0 2 -8 24865.50 22569.50 128.38 o
-1 3 8 522.32 590.42 64.80 o
-2 3 -8 580.73 573.66 62.41 o
-3 4 8 20690.20 19568.60 90.72 o
-1 4 -8 21066.80 20383.30 88.30 o
0 4 8 30796.40 31543.50 151.02 o
-4 4 -8 30800.20 27683.90 146.07 o
-5 5 8 46665.90 44014.90 160.45 o
0 5 -8 49364.70 50035.90 175.93 o
-2 5 8 23863.90 23733.10 110.56 o
-3 5 -8 22576.40 20989.00 110.42 o
-4 6 8 20371.00 20194.70 90.46 o
-2 6 -8 20247.10 20121.50 90.45 o
-1 6 8 508.50 561.55 71.99 o
-5 6 -8 318.16 561.45 67.18 o
-6 7 8 30879.30 31648.00 100.94 o
-1 7 -8 31473.50 30156.20 105.92 o
-3 7 8 36424.40 34760.80 106.48 o
-4 7 -8 37545.50 38412.90 99.14 o
0 7 8 29092.10 28582.60 140.00 o
-7 7 -8 28292.70 26482.70 166.91 o
-8 8 8 127655.00 134078.00 249.93 o
0 8 -8 128337.00 126995.00 244.78 o
-5 8 8 64027.40 64071.40 136.35 o
-3 8 -8 64589.50 66507.00 121.26 o
-2 8 8 30722.10 30378.30 105.71 o
-6 8 -8 30867.40 31842.20 98.35 o
-7 9 8 12457.40 12732.80 89.58 o
-2 9 -8 11536.60 12068.40 75.00 o
-4 9 8 4092.22 4016.06 74.59 o
-5 9 -8 3955.84 3984.36 64.96 o
-1 9 8 4237.22 4164.98 79.40 o
-8 9 -8 4080.69 3892.65 79.39 o
-9 10 8 26672.40 27158.80 131.89 o
-1 10 -8 25228.70 25851.50 92.72 o
-6 10 8 14467.20 14680.70 84.83 o
-4 10 -8 14289.60 14342.00 82.40 o
-3 10 8 7250.23 7112.73 79.57 o
-7 10 -8 7295.89 7194.94 72.34 o
0 10 8 7986.60 8408.49 120.57 o
-10 10 -8 8144.54 8341.84 130.23 o
-11 11 8 105231.00 100841.00 337.31 o
0 11 -8 103760.00 107021.00 186.38 o
-8 11 8 101213.00 104047.00 161.29 o
-3 11 -8 101057.00 102324.00 148.47 o
-5 11 8 47758.60 48137.60 108.98 o
-6 11 -8 47098.70 48030.10 111.40 o
-2 11 8 12362.60 12354.40 99.14 o
-9 11 -8 12915.90 12668.50 89.50 o
-10 12 8 24844.40 25121.90 133.96 o
-2 12 -8 25566.30 27406.50 87.72 o
-7 12 8 14116.20 14731.40 91.98 o
-5 12 -8 14238.00 14519.60 89.57 o
-4 12 8 6358.47 6476.32 84.30 o
-8 12 -8 6486.96 6633.41 91.53 o
-1 12 8 1185.33 1452.24 88.82 o
-11 12 -8 1271.63 1209.87 98.42 o
-12 13 8 20783.50 20270.50 157.81 o
-1 13 -8 21177.80 21746.70 97.14 o
-9 13 8 22125.50 22912.60 119.12 o
-4 13 -8 22726.30 23290.50 97.28 o
-6 13 8 12715.80 13146.50 91.87 o
-7 13 -8 12599.80 12456.60 91.86 o
-3 13 8 3630.72 4014.56 84.14 o
-10 13 -8 3348.50 3239.95 93.74 o
0 13 8 2453.96 2776.80 134.52 o
-13 13 -8 2353.18 2277.03 192.15 o
-11 14 8 61583.30 61807.90 173.89 o
-3 14 -8 62315.40 63351.40 124.26 o
-8 14 8 43216.70 44200.10 125.46 o
-6 14 -8 43619.60 42822.60 123.03 o
-5 14 8 17585.50 17869.30 111.49 o
-9 14 -8 16966.70 16486.70 109.02 o
-2 14 8 555.82 758.22 88.78 o
-12 14 -8 498.83 439.08 117.57 o
-10 15 8 14645.00 14709.00 137.88 o
-5 15 -8 15148.50 15105.20 169.37 o
-7 15 8 14055.50 14738.70 103.98 o
-8 15 -8 14219.30 14123.40 103.99 o
-1 2 9 182033.00 173499.00 197.15 o
-1 2 -9 182981.00 162611.00 188.74 o
-2 4 9 148347.00 145211.00 183.88 o
-2 4 -9 147864.00 138397.00 181.06 o
-4 5 9 106197.00 104394.00 165.70 o
-1 5 -9 105531.00 104037.00 157.72 o
-1 5 9 99932.80 100384.00 156.99 o
-4 5 -9 100273.00 95643.40 154.41 o
-3 6 9 711.17 859.26 72.00 o
-3 6 -9 620.66 734.39 67.20 o
-5 7 9 71451.80 72346.10 129.43 o
-2 7 -9 72017.00 71521.80 134.56 o
-2 7 9 76911.20 75280.90 137.62 o
-5 7 -9 75568.80 76901.90 132.38 o
-7 8 9 36958.20 38165.90 110.90 o
-1 8 -9 37124.70 35979.20 113.38 o
-4 8 9 42744.70 42079.00 114.00 o
-4 8 -9 42069.70 42994.00 101.55 o
-1 8 9 24661.30 24328.80 102.59 o
-7 8 -9 25093.80 25015.80 102.62 o
-6 9 9 1205.25 1209.99 74.42 o
-3 9 -9 971.03 1084.96 69.61 o
-3 9 9 2623.35 2573.86 86.52 o
-6 9 -9 2960.11 2927.85 67.31 o
-8 10 9 11075.60 11183.60 96.66 o
-2 10 -9 12182.20 12867.70 87.06 o
-5 10 9 25394.40 26109.10 95.19 o
-5 10 -9 25704.70 25855.80 100.09 o
-2 10 9 22275.50 22550.80 104.68 o
-8 10 -9 22170.80 22157.30 97.37 o
-10 11 9 4397.77 4281.34 122.67 o
-1 11 -9 3966.18 3986.83 74.54 o
-7 11 9 3793.04 3950.78 84.16 o
-4 11 -9 3380.16 3601.14 76.93 o
-4 11 9 4797.67 4930.28 89.03 o
-7 11 -9 5482.10 5811.12 86.66 o
-1 11 9 4019.05 4121.62 93.78 o
-10 11 -9 3988.29 3893.10 127.45 o
-9 12 9 3379.12 3401.18 110.57 o
-3 12 -9 3300.27 3348.13 79.32 o
-6 12 9 6677.05 6876.91 89.12 o
-6 12 -9 6471.30 6589.43 84.29 o
-3 12 9 2536.43 2733.95 93.69 o
-9 12 -9 3018.97 2965.46 93.72 o
-11 13 9 1978.19 1844.31 124.88 o
-2 13 -9 1963.66 1976.37 79.25 o
-8 13 9 4094.56 4465.30 88.97 o
-5 13 -9 4072.72 4183.91 91.37 o
-5 13 9 7421.94 7606.40 91.56 o
-8 13 -9 7248.21 7152.69 96.36 o
-2 13 9 2078.81 2106.19 86.46 o
-11 13 -9 1960.64 1753.04 117.67 o
-10 14 9 1768.99 1788.84 122.46 o
-4 14 -9 1685.36 1879.99 88.84 o
-7 14 9 796.78 1279.09 86.39 o
-7 14 -9 857.71 1051.14 91.20 o
-4 14 9 1225.68 1505.03 84.01 o
-10 14 -9 1203.55 1238.58 100.81 o
-1 1 10 7905.02 7462.82 101.50 o
0 1 -10 8157.66 7099.59 94.27 o
0 2 10 13160.30 11914.50 109.26 o
-2 2 -10 12793.20 10699.30 109.23 o
-2 3 10 293.47 417.48 64.78 o
-1 3 -10 337.92 475.08 67.18 o
-4 4 10 18935.70 18124.10 119.45 o
0 4 -10 18461.00 17885.40 121.83 o
-1 4 10 8530.95 8419.37 77.33 o
-3 4 -10 8633.90 7600.83 77.34 o
-3 5 10 22319.40 22160.40 95.31 o
-2 5 -10 21671.60 21276.60 95.26 o
0 5 10 37489.30 36514.40 170.56 o
-5 5 -10 38642.00 35040.80 153.40 o
-5 6 10 1737.70 1806.27 79.26 o
-1 6 -10 1866.78 1861.71 72.07 o
-2 6 10 5005.20 5064.64 77.07 o
-4 6 -10 4763.94 4418.37 72.23 o
-7 7 10 20191.50 21200.80 146.03 o
0 7 -10 18811.90 17839.20 126.43 o
-4 7 10 14583.50 15045.10 89.74 o
-3 7 -10 15028.60 14700.80 84.92 o
-1 7 10 16945.20 16431.70 87.44 o
-6 7 -10 17083.00 16826.90 92.31 o
-6 8 10 14201.70 13036.20 92.08 o
-2 8 -10 13968.30 13227.90 92.06 o
-3 8 10 58922.90 58294.30 132.55 o
-5 8 -10 59554.50 61127.00 117.60 o
0 8 10 70844.60 71060.00 188.60 o
-8 8 -10 71110.50 71489.70 188.63 o
-8 9 10 335.59 386.27 86.37 o
-1 9 -10 286.37 340.68 83.97 o
-5 9 10 4496.32 4386.40 81.81 o
-4 9 -10 4825.44 4957.78 79.42 o
-2 9 10 20892.10 21480.20 94.87 o
-7 9 -10 20866.30 20718.40 97.30 o
-10 10 10 7754.09 7731.90 207.28 o
0 10 -10 7469.91 7482.34 115.67 o
-7 10 10 13945.20 14465.00 94.40 o
-3 10 -10 14447.40 14605.30 87.17 o
-4 10 10 18882.20 19389.20 97.14 o
-6 10 -10 19839.70 20859.30 94.77 o
-1 10 10 26835.10 27198.50 112.21 o
-9 10 -10 25370.80 25733.50 112.11 o
-9 11 10 5296.50 5722.64 98.67 o
-2 11 -10 5625.63 5844.14 79.43 o
-6 11 10 46033.10 47252.80 118.48 o
-5 11 -10 45062.00 44642.10 115.94 o
-3 11 10 66172.40 68160.80 139.84 o
-8 11 -10 65789.10 64862.40 139.81 o
0 11 10 71394.90 74057.30 207.49 o
-11 11 -10 71002.90 70319.40 202.45 o
-11 12 10 161.79 436.60 143.93 o
-1 12 -10 121.96 374.22 79.16 o
-8 12 10 2664.37 2750.90 88.89 o
-4 12 -10 2868.29 2900.22 81.70 o
-5 12 10 11067.30 11412.40 96.59 o
-7 12 -10 11664.90 11542.10 96.63 o
-2 12 10 14860.50 15184.10 101.63 o
-10 12 -10 14560.30 13487.90 125.81 o
-10 13 10 3556.88 3408.34 132.20 o
-3 13 -10 3574.18 3622.30 81.72 o
-7 13 10 7361.83 7444.09 98.77 o
-6 13 -10 7355.03 7357.34 96.36 o
-4 13 10 10723.00 11264.80 101.38 o
-9 13 -10 10604.80 10344.50 108.61 o
-6 14 10 32456.70 31900.20 153.93 o
-8 14 -10 32843.50 30900.20 129.52 o
-1 3 11 13884.10 13555.30 80.07 o
-2 3 -11 14361.30 12713.50 82.52 o
-3 4 11 8942.02 8967.60 74.89 o
-1 4 -11 9440.45 9021.90 79.75 o
-2 5 11 5958.60 6388.28 79.52 o
-3 5 -11 5625.75 5309.75 79.50 o
-4 6 11 32362.10 32477.90 105.62 o
-2 6 -11 30452.20 29506.60 103.02 o
-1 6 11 9868.99 9741.52 82.15 o
-5 6 -11 10558.10 10116.30 108.78 o
-6 7 11 40808.20 40695.90 123.35 o
-1 7 -11 41479.20 37745.20 118.47 o
-3 7 11 12810.20 13076.50 87.14 o
-4 7 -11 12406.50 11971.60 84.70 o
-5 8 11 247.60 400.64 79.17 o
-3 8 -11 294.58 400.66 71.97 o
-2 8 11 5013.83 5023.04 89.05 o
-6 8 -11 4859.98 4678.38 84.23 o
-7 9 11 51076.90 52735.10 138.75 o
-2 9 -11 49411.60 49841.60 118.81 o
-4 9 11 30727.40 30501.10 115.01 o
-5 9 -11 31241.00 31840.40 102.81 o
-1 9 11 8137.93 8559.43 86.80 o
-8 9 -11 8719.78 8598.77 91.66 o
-9 10 11 43791.60 45317.90 182.24 o
-1 10 -11 45376.70 46506.50 118.32 o
-6 10 11 31470.70 32110.10 117.42 o
-4 10 -11 33057.80 33253.30 110.19 o
-3 10 11 15685.70 15764.20 101.74 o
-7 10 -11 14744.30 14609.90 96.83 o
-8 11 11 2984.82 3020.57 93.72 o
-3 11 -11 3158.24 3162.68 86.52 o
-5 11 11 2241.21 2267.45 81.67 o
-6 11 -11 2004.26 2050.97 88.86 o
-2 11 11 1822.51 2045.89 93.65 o
-9 11 -11 1394.55 1464.41 115.23 o
-10 12 11 43431.30 43630.90 204.09 o
-2 12 -11 42999.70 43976.80 108.17 o
-7 12 11 35338.20 38068.10 119.99 o
-5 12 -11 34539.60 34092.80 115.04 o
-4 12 11 12707.00 12827.50 94.25 o
-8 12 -11 13657.10 13381.10 111.23 o
-1 12 11 1548.80 1670.96 112.84 o
-11 12 -11 1564.61 1382.88 136.85 o
-9 13 11 31581.90 31381.30 153.85 o
-4 13 -11 31363.00 29174.90 131.86 o
-6 13 11 16975.60 17047.60 113.84 o
-7 13 -11 16689.40 15974.30 113.83 o
0 0 12 91136.70 89921.10 339.20 o
0 0 -12 84363.80 73783.00 317.07 o
-1 2 12 45921.50 45173.90 109.28 o
-1 2 -12 46955.70 41020.40 104.40 o
-3 3 12 114267.00 114596.00 223.90 o
0 3 -12 116130.00 106892.00 218.98 o
0 3 12 124586.00 127466.00 235.97 o
-3 3 -12 123147.00 108662.00 222.65 o
-2 4 12 23079.20 22884.40 92.71 o
-2 4 -12 22488.80 20226.20 85.35 o
-4 5 12 14891.30 14957.10 87.27 o
-1 5 -12 15001.30 14715.90 87.28 o
-1 5 12 17790.80 18607.10 94.74 o
-4 5 -12 17250.30 15472.50 92.27 o
-6 6 12 57498.20 57478.20 201.82 o
0 6 -12 57765.90 59349.70 199.36 o
-3 6 12 74086.70 76392.60 141.24 o
-3 6 -12 75727.20 70738.50 133.82 o
0 6 12 64416.40 65730.90 207.72 o
-6 6 -12 65200.80 63708.20 212.84 o
-5 7 12 5708.55 6289.28 79.46 o
-2 7 -12 5460.05 5496.19 81.85 o
-2 7 12 9485.77 9834.25 94.14 o
-5 7 -12 9170.72 9233.67 84.47 o
-7 8 12 11602.20 12243.70 99.07 o
-1 8 -12 11624.30 10943.90 94.24 o
-4 8 12 12039.40 12421.00 94.28 o
-4 8 -12 11892.00 12458.50 84.60 o
-1 8 12 9266.48 9260.35 101.34 o
-7 8 -12 9576.92 9303.19 108.60 o
-9 9 12 11338.50 12816.90 154.57 o
0 9 -12 10402.60 9782.86 132.76 o
-6 9 12 18928.40 19530.90 106.79 o
-3 9 -12 18403.00 18083.30 97.05 o
-3 9 12 17276.60 17639.10 101.83 o
-6 9 -12 16805.50 16446.30 96.96 o
0 9 12 10473.40 11914.70 137.59 o
-9 9 -12 10211.70 10177.50 132.74 o
-8 10 12 1935.24 2230.95 105.66 o
-2 10 -12 2106.22 2137.52 86.46 o
-5 10 12 1375.21 1466.82 98.43 o
-5 10 -12 1385.65 1440.42 86.43 o
-2 10 12 2407.99 2630.34 98.49 o
-8 10 -12 2603.35 2488.91 105.71 o
-10 11 12 1664.15 1651.87 134.46 o
-1 11 -12 1688.65 1572.66 96.04 o
-7 11 12 10537.50 10788.90 101.37 o
-4 11 -12 10646.00 10499.90 96.55 o
-4 11 12 7684.47 7529.94 101.20 o
-7 11 -12 7470.38 7244.70 96.37 o
-1 11 12 1404.99 1577.21 100.83 o
-10 11 -12 1441.10 1642.06 98.43 o
-9 12 12 3288.72 3655.28 187.45 o
-3 12 -12 3414.80 3561.81 156.22 o
-6 12 12 3901.70 4127.84 96.16 o
-6 12 -12 3992.46 3861.19 96.17 o
-3 12 12 3136.43 3090.25 139.37 o
-9 12 -12 2980.55 2136.07 148.97 o
-2 3 13 4346.70 4280.27 76.99 o
-1 3 -13 4407.29 4107.21 69.78 o
-1 4 13 8988.97 9509.17 84.47 o
-3 4 -13 9033.48 8046.83 82.06 o
-3 5 13 2393.25 2681.23 76.88 o
-2 5 -13 2374.36 2515.42 74.48 o
-5 6 13 10566.20 11348.70 99.02 o
-1 6 -13 10731.90 10990.00 96.62 o
-2 6 13 21414.00 22822.10 102.16 o
-4 6 -13 21332.30 19919.40 102.15 o
-4 7 13 8390.76 8874.43 91.64 o
-3 7 -13 8692.29 8434.74 89.24 o
-1 7 13 30126.50 31132.50 122.20 o
-6 7 -13 29629.50 28115.20 117.28 o
-6 8 13 3319.72 3898.61 91.34 o
-2 8 -13 3383.07 3076.70 93.74 o
-3 8 13 1244.63 1423.51 86.42 o
-5 8 -13 1173.26 1267.42 79.21 o
-8 9 13 9905.70 10548.60 168.89 o
-1 9 -13 10021.50 9364.60 106.17 o
-5 9 13 20020.50 20257.00 123.81 o
-4 9 -13 19376.60 19557.50 99.50 o
-2 9 13 27957.40 28689.80 126.82 o
-7 9 -13 28344.80 27586.40 129.28 o
-7 10 13 5762.33 5930.36 108.31 o
-3 10 -13 6064.92 6193.80 93.88 o
-4 10 13 19217.50 20137.20 114.02 o
-6 10 -13 18446.30 18578.70 101.84 o
-1 10 13 34021.60 36313.00 132.07 o
-9 10 -13 34658.50 33779.10 134.57 o
-6 11 13 362.41 429.45 91.17 o
-5 11 -13 387.05 403.07 95.97 o
-3 11 13 680.84 883.06 107.98 o
-8 11 -13 698.30 652.70 110.38 o
0 1 14 455.32 527.87 100.78 o
-1 1 -14 292.03 290.30 105.56 <
-2 2 14 5043.29 5470.43 108.30 o
0 2 -14 4813.38 4276.06 105.88 o
-1 3 14 118.10 242.28 71.97 o
-2 3 -14 135.60 225.49 67.17 o
-3 4 14 3797.19 4114.20 79.35 o
-1 4 -14 3950.35 3727.44 76.95 o
0 4 14 5944.79 6578.15 125.21 o
-4 4 -14 5958.17 5116.65 122.80 o
-5 5 14 19827.10 21853.70 157.85 o
0 5 -14 19520.00 19698.40 143.25 o
-2 5 14 7746.96 7998.02 89.19 o
-3 5 -14 7788.55 7019.55 89.19 o
-4 6 14 3960.51 4417.23 103.40 o
-2 6 -14 3847.26 3748.49 103.39 o
-1 6 14 408.11 501.45 81.58 o
-5 6 -14 351.55 455.85 100.77 o
-6 7 14 8131.73 8829.48 106.06 o
-1 7 -14 8631.23 8000.28 98.86 o
-3 7 14 10492.00 10954.90 106.22 o
-4 7 -14 10668.50 10072.50 98.99 o
0 7 14 8140.20 8836.31 149.44 o
-7 7 -14 7802.18 7754.92 147.00 o
-8 8 14 38383.70 44678.60 201.09 o
0 8 -14 37786.20 37291.90 193.67 o
-5 8 14 22993.60 23963.30 126.44 o
-3 8 -14 23517.60 22795.80 111.89 o
-2 8 14 7975.78 8256.83 101.22 o
-6 8 -14 7993.43 7912.28 103.63 o
-7 9 14 5177.49 5791.02 115.48 o
-2 9 -14 4889.84 4608.95 105.84 o
-4 9 14 2406.64 2685.50 98.48 o
-5 9 -14 2338.33 2356.32 91.27 o
-1 9 14 952.87 1195.20 100.80 o
-8 9 -14 840.80 928.74 93.59 o
-6 10 14 8818.42 9443.37 118.13 o
-4 10 -14 8407.38 8621.64 108.46 o
-3 10 14 3453.54 3650.82 110.56 o
-7 10 -14 3324.49 2662.81 153.81 o
-1 2 15 52547.50 55524.10 126.35 o
-1 2 -15 53183.30 42377.20 116.49 o
-2 4 15 36181.00 39258.40 120.15 o
-2 4 -15 35495.70 32499.70 110.29 o
-4 5 15 33995.80 36754.80 124.84 o
-1 5 -15 33091.80 31188.80 117.43 o
-1 5 15 25110.20 28078.50 114.45 o
-4 5 -15 25718.30 23187.60 109.62 o
-3 6 15 106.15 218.29 91.16 <
-3 6 -15 96.94 213.49 93.55 <
-5 7 15 18543.50 20618.00 118.81 o
-2 7 -15 18934.40 18325.80 113.99 o
-2 7 15 22752.20 24348.30 128.83 o
-5 7 -15 22330.30 21781.00 111.79 o
-7 8 15 10108.70 11059.50 188.18 o
-1 8 -15 9966.04 9642.47 115.80 o
-4 8 15 14844.20 16098.30 116.13 o
-4 8 -15 15218.60 15029.80 101.63 o
-1 8 15 8552.97 9261.05 115.70 o
-7 8 -15 8574.96 8810.41 110.88 o
-1 1 16 871.95 875.97 115.20 o
0 1 -16 666.20 496.72 112.78 o
0 2 16 3030.13 3241.68 120.15 o
-2 2 -16 3268.18 2884.04 124.97 o
-2 3 16 112.24 340.63 83.96 o
-1 3 -16 110.47 206.30 88.76 <
-4 4 16 5519.33 6076.31 137.17 o
0 4 -16 5666.95 5508.86 141.99 o
-1 4 16 3477.18 3848.16 96.14 o
-3 4 -16 3509.53 3165.60 86.53 o
-3 5 16 4883.18 5583.24 103.44 o
-2 5 -16 4579.24 4425.40 98.61 o
0 5 16 9573.77 10569.50 161.60 o
-5 5 -16 9367.91 8378.36 151.94 o
-5 6 16 195.63 242.29 119.95 <
-1 6 -16 142.09 285.46 103.15 <
-2 6 16 1776.86 2040.97 100.85 o
-4 6 -16 1885.79 1839.39 98.45 o
-1 3 17 2692.28 3022.22 98.50 o
-2 3 -17 2717.67 2215.05 93.69 o
