#------------------------------------------------------------------------------
#$Date: 2017-01-04 18:06:15 +0200 (Wed, 04 Jan 2017) $
#$Revision: 189841 $
#$URL: file:///home/coder/svn-repositories/cod/cif/3/50/00/3500065.cif $
#------------------------------------------------------------------------------
#
# This file is available in the Crystallography Open Database (COD),
# http://www.crystallography.net/
#
# All data on this site have been placed in the public domain by the
# contributors.
#
data_3500065
loop_
_publ_author_name
'Armel Le Bail'
_publ_section_title
;
 Rietveld refinement of the crystal structure of Pb5CrO8 from neutron
 powder diffraction data
;
_journal_name_full               'Personal communication to COD'
_journal_year                    2017
_chemical_compound_source
;
Solid state synthesis
;
_chemical_formula_sum            'Cr O8 Pb5'
_chemical_formula_weight         1215.99
_space_group_IT_number           14
_symmetry_cell_setting           monoclinic
_symmetry_Int_Tables_number      14
_symmetry_space_group_name_Hall  '-P 2ybc'
_symmetry_space_group_name_H-M   'P 1 21/c 1'
_cell_angle_alpha                90.00000
_cell_angle_beta                 90.9883(8)
_cell_angle_gamma                90.00000
_cell_formula_units_Z            8
_cell_length_a                   14.83490(19)
_cell_length_b                   11.71072(16)
_cell_length_c                   11.61249(16)
_cell_measurement_temperature    295
_cell_special_details
; 
superstructure with a x 2
;
_cell_volume                     2017.11(5)
_computing_structure_refinement  FULLPROF
_diffrn_ambient_temperature      295
_diffrn_radiation_probe          neutron
_diffrn_radiation_type           'Constant Wavelength Neutron Diffraction'
_diffrn_radiation_wavelength     1.59380
_diffrn_source                   'nuclear reactor'
_diffrn_source_type              'D2B - ILL - Grenoble, France'
_exptl_crystal_density_diffrn    8.008
_pd_meas_2theta_range_inc        0.050000
_pd_meas_2theta_range_max        160.00000
_pd_meas_2theta_range_min        0.00000
_pd_meas_number_of_points        3201
_pd_proc_2theta_range_inc        0.050000
_pd_proc_2theta_range_max        160.0407
_pd_proc_2theta_range_min        0.0407
_pd_proc_ls_prof_R_factor        2.9123
_pd_proc_ls_prof_wR_expected     1.6007
_pd_proc_ls_prof_wR_factor       3.8829
_pd_proc_wavelength              1.593800
_refine_ls_number_parameters     131
_refine_ls_number_reflns         4065
_refine_ls_number_restraints     0
_refine_ls_R_I_factor            3.8622
_iucr_refine_instructions_details
;
Fullprof .pcr file, modified to fit inside 80 columns
followed by the .dat file


COMM    Pb5CrO8
! Current global Chi2 (Bragg contrib.) =      5.884    
! Files => DAT-file: pb5nax2-2.dat,  PCR-file: pb5nax2-2
!Job Npr Nph Nba Nex Nsc Nor Dum Iwg Ilo Ias Res Ste Nre Cry Uni Cor Opt Aut
   1   5   1  23   2   0   1   1   0   0   1   0   0   0   0   0   0   0   0
!
!Ipr Ppl Ioc Mat Pcr Ls1 Ls2 Ls3 NLI Prf Ins Rpa Sym Hkl Fou Sho Ana
   0   0   1   0   2   0   4   0   0  -3   1  -1   1   0   2   1   1
!
! Lambda1  Lambda2    Ratio    Bkpos    Wdt    Cthm     muR   AsyLim   Rpolarz
  2nd-muR -> Patt# 1
 1.593800 1.593800  0.00000   90.000  8.0000  0.0000  0.0000   80.00    0.0000
  0.0000
!
!NCY  Eps  R_at  R_an  R_pr  R_gl     Thmin       Step       Thmax    PSD    
Sent0
 20  0.01  0.20  0.20  0.20  0.40      0.0000   0.050000   160.0000   0.000  
 0.000
!
!2Theta/TOF/E(Kev)   Background  for Pattern#  1
         2.0000       290.1600          0.00
         4.0000       271.8900          0.00
         6.2000       305.3342       1201.00
         8.0000       227.4213       1191.00
        10.0000       244.6089       1181.00
        12.0000       212.1407       1011.00
        20.0000       212.6615       1021.00
        30.0000       187.1810       1031.00
        40.0000       294.7869       1041.00
        50.0000       327.2123       1051.00
        60.0000       379.4046       1061.00
        70.0000       361.6669       1071.00
        80.0000       483.9532       1081.00
        90.0000       520.2257       1091.00
       100.0000       536.3554       1101.00
       110.0000       502.5822       1111.00
       120.0000       543.1038       1121.00
       130.0000       544.3727       1131.00
       140.0000       553.9433       1141.00
       150.0000       542.2729       1151.00
       152.0000       493.8469       1161.00
       154.0000       540.1776       1171.00
       160.0000       527.7800          0.00
! 
! Excluded regions (LowT  HighT) for Pattern#  1
        0.00        6.00
      156.00      170.00
! 
!
     131    !Number of refined parameters
!
!  Zero    Code    SyCos    Code   SySin    Code  Lambda     Code MORE ->Patt# 1
 -0.04069   21.0  0.00000    0.0  0.00000    0.0 0.000000    0.00   0
!-------------------------------------------------------------------------------
!  Data for PHASE number:   1  ==> Current R_Bragg for Pattern#  1:     3.86
!-------------------------------------------------------------------------------
   Pb5CrO8
!
!Nat Dis Ang Pr1 Pr2 Pr3 Jbt Irf Isy Str Furth       ATZ    Nvk Npr More
  28   0   0 0.0 1.0 1.0   0   0   0   0   0     155646.984   0   5   1
!
!Jvi Jdi Hel Sol Mom Ter  Brind   RMua    RMub    RMuc   Jtyp  Nsp_Ref Ph_Shift
 N_Domains
   2   3   0   0   0   0  1.0000  0.0000  0.0000  0.0000    1      0      0    
  0
!
! Max_dst(dist) (angles)  Bond-Valence Calc.
      3.5000    180.0000           
P 21/C                   <--Space group symbol
!Atom   Typ       X        Y        Z     Biso       Occ     In Fin N_t Spc 
/Codes
Pb1    Pb      0.18906  0.24352  0.11224  1.54936   4.00000   0   0   0    0  
                141.00   151.00   161.00   981.00      0.00
Pb2    Pb      0.42639  0.25312  0.11668  1.54936   4.00000   0   0   0    0  
                171.00   181.00   191.00   981.00      0.00
Pb3    Pb      0.70427  0.25114  0.10907  1.40076   4.00000   0   0   0    0  
                201.00   211.00   221.00  1211.00      0.00
Pb4    Pb      0.93888  0.26542  0.10084  1.40076   4.00000   0   0   0    0  
                231.00   241.00   251.00  1211.00      0.00
Pb5    Pb      0.19055  0.57754  0.13934  1.35208   4.00000   0   0   0    0  
                261.00   271.00   281.00  1221.00      0.00
Pb6    Pb      0.67759  0.57691  0.12831  1.35208   4.00000   0   0   0    0  
                291.00   301.00   311.00  1221.00      0.00
Pb7    Pb      0.18817  0.91364  0.11314  1.32987   4.00000   0   0   0    0  
                321.00   331.00   341.00  1231.00      0.00
Pb8    Pb      0.43794  0.92910  0.10856  1.32987   4.00000   0   0   0    0  
                351.00   361.00   371.00  1231.00      0.00
Pb9    Pb      0.68984  0.91135  0.10803  1.29809   4.00000   0   0   0    0  
                381.00   391.00   401.00  1241.00      0.00
Pb10   Pb      0.93636  0.94623  0.11919  1.29809   4.00000   0   0   0    0  
                411.00   421.00   431.00  1241.00      0.00
Cr1    Cr      0.43109  0.60650  0.15350  2.04782   4.00000   0   0   0    0  
                441.00   451.00   461.00   991.00      0.00
Cr2    Cr      0.92578  0.59090  0.15158  2.04782   4.00000   0   0   0    0  
                471.00   481.00   491.00   991.00      0.00
O1     O       0.18593  0.08232  0.00521  1.48493   4.00000   0   0   0    0  
                501.00   511.00   521.00  1001.00      0.00
O2     O       0.43948  0.09110  0.00623  1.48493   4.00000   0   0   0    0  
                531.00   541.00   551.00  1001.00      0.00
O3     O       0.68454  0.09099  0.01088  1.37529   4.00000   0   0   0    0  
                561.00   571.00   581.00  1251.00      0.00
O4     O       0.94589  0.09992 -0.00515  1.37529   4.00000   0   0   0    0  
                591.00   601.00   611.00  1251.00      0.00
O5     O       0.18241  0.72408  0.02320  1.31338   4.00000   0   0   0    0  
                621.00   631.00   641.00  1261.00      0.00
O6     O       0.69204  0.72594  0.01439  1.31338   4.00000   0   0   0    0  
                651.00   661.00   671.00  1261.00      0.00
O7     O       0.82833  0.17420  0.20416  2.22221   4.00000   0   0   0    0  
                681.00   691.00   701.00  1271.00      0.00
O8     O       0.31252  0.17696  0.20882  2.22221   4.00000   0   0   0    0  
                711.00   721.00   731.00  1271.00      0.00
O9     O       0.34755  0.69995  0.15370  4.30090   4.00000   0   0   0    0  
                741.00   751.00   761.00  1281.00      0.00
O10    O       0.44550  0.58705  0.29289  4.30090   4.00000   0   0   0    0  
                771.00   781.00   791.00  1281.00      0.00
O11    O       0.39736  0.49124  0.08899  4.90600   4.00000   0   0   0    0  
                801.00   811.00   821.00  1291.00      0.00
O12    O       0.51979  0.66672  0.10195  4.90600   4.00000   0   0   0    0  
                831.00   841.00   851.00  1291.00      0.00
O13    O       0.02889  0.55049  0.10869  2.70498   4.00000   0   0   0    0  
                861.00   871.00   881.00  1301.00      0.00
O14    O       0.92839  0.59411  0.29416  2.70498   4.00000   0   0   0    0  
                891.00   901.00   911.00  1301.00      0.00
O15    O       0.85018  0.50856  0.10240  3.38748   4.00000   0   0   0    0  
                921.00   931.00   941.00  1311.00      0.00
O16    O       0.91250  0.72121  0.10456  3.38748   4.00000   0   0   0    0  
                951.00   961.00   971.00  1311.00      0.00
!-------> Profile Parameters for Pattern #  1
!  Scale        Shape1      Bov      Str1      Str2      Str3   Strain-Model
 0.33004E-02   0.61589   0.00000   0.00000   0.00000   0.00000       0
    11.00000    31.000     0.000     0.000     0.000     0.000
!       U         V          W           X          Y        GauSiz   LorSiz 
Size-Model
   0.074669  -0.130325   0.102254  -0.007155   0.000000   0.000000   0.000000 
   0
    121.000     51.000     41.000    131.000      0.000      0.000      0.000
!     a          b         c        alpha      beta       gamma      #Cell Info
  14.834895  11.710720  11.612494  90.000000  90.988281  90.000000   
   61.00000   71.00000   81.00000    0.00000   91.00000    0.00000
!  Pref1    Pref2      Asy1     Asy2     Asy3     Asy4  
  1.00000  0.00000  0.18213  0.04596  0.00000  0.00000
     0.00     0.00   101.00   111.00     0.00     0.00
!  2Th1/TOF1    2Th2/TOF2  Pattern to plot
       6.000     156.000       1





Fullprof .dat file



   0. 0.05 160.
 2   184 3   171 3   155 3   141 3   127 3   104 3    99 3    82 3    76 3    63
 3    58 3    62 3    60 3    66 3    54 3    53 3    48 3    52 3    54 3    45
 3    46 3    48 3    43 3    41 3    40 3    39 3    41 3    38 3    35 3    34
 3    35 3    33 3    26 3    27 3    27 3    26 3    27 3    25 3    21 3    21
 3    26 3    20 3    19 3    18 3    19 3    20 3    18 3    18 3    20 3    19
 3    17 4    19 4    18 4    18 4    18 4    16 4    16 4    21 4    20 4    15
 4    15 4    16 4    17 4    16 4    14 4    21 4    21 4    20 4    21 4    25
 4    24 4    32 4    44 4    55 4    60 4    66 4    78 4    81 4    91 4   105
 4   107 4   122 4   129 4   139 4   161 4   167 4   182 4   175 4   180 4   190
 4   208 4   209 4   218 4   230 4   223 4   240 4   245 4   239 4   248 4   244
 4   252 5   260 5   267 5   268 5   277 5   271 5   271 5   272 5   272 5   285
 5   283 5   299 5   300 5   289 5   281 5   309 5   311 5   303 5   300 5   312
 5   315 5   309 5   325 5   315 5   310 5   305 5   312 5   312 5   299 5   310
 5   312 5   294 5   286 5   274 5   289 5   285 5   275 5   268 5   276 5   258
 5   254 5   255 5   257 5   260 5   257 5   256 5   265 5   252 5   244 5   253
 5   252 5   244 5   249 5   263 5   249 5   240 5   252 5   244 5   252 5   248
 5   238 5   235 5   241 5   234 5   234 5   233 5   225 5   236 5   232 5   233
 5   226 5   232 5   236 5   248 5   239 5   223 5   227 5   226 5   215 5   228
 5   234 5   234 5   228 5   222 5   217 5   230 5   229 5   234 5   236 5   226
 5   232 5   231 5   230 5   229 5   235 5   225 5   243 5   259 5   248 5   248
 6   246 5   261 5   256 5   260 5   271 5   277 5   285 5   305 5   313 5   326
 5   363 5   381 5   400 5   442 5   478 5   535 5   629 5   712 5   858 5  1029
 5  1081 5   997 5   813 5   594 5   437 5   305 5   251 5   242 5   227 5   222
 5   241 5   244 5   225 5   225 5   233 5   226 5   223 5   232 5   236 5   236
 5   230 5   255 5   258 5   270 5   279 5   296 5   283 5   271 5   245 5   228
 5   224 5   221 5   218 5   218 5   208 5   221 5   221 5   218 5   222 5   207
 5   210 5   217 5   221 5   218 5   226 5   219 5   218 5   210 5   222 5   216
 5   210 5   217 5   225 5   215 5   223 5   230 5   238 5   225 5   242 5   250
 5   256 5   260 5   264 5   269 5   306 5   317 5   332 5   352 5   422 5   469
 5   496 5   491 5   442 5   381 5   306 5   261 5   242 5   215 5   230 5   234
 5   232 5   274 5   266 5   274 5   300 5   341 5   366 5   402 5   456 5   552
 5   661 5   816 5  1023 5  1190 5  1205 5  1118 5   889 5   612 5   404 5   300
 5   248 5   220 5   214 5   231 5   230 5   236 5   248 5   258 5   265 5   261
 5   254 5   250 5   254 5   251 5   236 5   250 5   273 5   278 5   288 5   309
 5   325 5   396 5   429 5   491 5   590 5   712 5   939 5  1157 5  1395 5  1450
 5  1324 5  1062 5   762 5   492 5   333 5   243 5   220 5   214 5   207 5   218
 5   217 5   231 5   215 5   209 5   221 5   221 5   228 5   225 5   223 5   252
 5   241 5   237 5   231 5   235 5   245 5   229 5   239 5   232 5   223 5   213
 5   212 5   212 5   209 5   206 5   223 5   225 5   231 5   225 5   243 5   260
 5   271 5   296 5   326 5   366 5   454 5   535 5   618 5   687 5   681 5   609
 5   500 4   402 5   342 5   305 5   256 5   250 5   244 5   229 5   233 5   225
 5   225 5   211 5   212 5   223 5   210 5   221 5   210 5   214 5   221 5   215
 5   225 5   226 5   243 5   248 5   262 5   280 5   304 5   310 5   325 5   344
 5   362 5   373 5   393 5   398 5   368 5   310 5   280 5   245 5   216 5   226
 5   216 5   206 5   212 5   220 5   225 5   219 5   212 5   219 5   210 5   215
 4   216 4   236 5   219 5   217 5   217 5   226 5   222 5   229 5   229 5   249
 5   257 5   256 5   246 5   249 5   233 5   235 5   234 5   229 5   233 5   233
 5   228 5   233 5   220 5   212 5   212 5   212 5   215 5   217 5   219 5   216
 5   224 5   221 5   209 5   227 5   215 5   209 5   213 5   213 5   232 5   234
 5   225 5   240 5   264 5   283 5   309 5   334 5   364 5   418 5   471 5   505
 5   517 5   493 5   398 5   312 5   288 5   273 5   271 5   290 5   311 5   308
 5   311 5   307 5   318 5   321 5   288 5   286 5   269 5   252 5   255 5   239
 5   248 5   242 5   237 5   237 5   213 5   210 5   221 5   224 5   234 5   238
 5   226 5   222 5   216 5   240 5   229 5   239 5   248 5   243 5   261 5   279
 5   299 5   308 5   306 5   309 5   284 5   265 5   260 5   250 5   245 5   252
 5   257 4   241 5   277 5   295 5   305 5   327 5   343 5   347 5   361 5   399
 5   463 5   597 5   842 5  1193 5  1760 5  2653 5  3883 5  5268 5  6269 5  6137
 5  4967 5  3332 5  1910 5  1000 5   518 5   343 5   347 5   400 5   478 5   615
 5   807 5  1112 5  1574 5  2170 5  2755 5  2950 5  2651 5  2080 5  1480 5  1159
 5  1176 5  1469 5  2067 5  2826 5  3331 5  3234 5  2590 5  1736 5  1006 5   558
 5   367 5   346 5   383 5   422 5   467 5   562 5   647 5   622 5   570 5   464
 5   408 5   379 5   388 5   410 5   440 5   486 5   486 5   464 5   433 5   436
 5   426 5   413 5   418 5   420 5   428 5   392 5   343 5   352 5   345 5   385
 5   471 5   572 5   740 5  1039 5  1464 5  1849 5  2080 5  1960 5  1618 5  1092
 5   685 5   445 5   341 5   335 5   322 5   312 5   307 5   313 5   320 5   341
 5   357 5   367 5   362 5   350 5   327 5   313 5   310 5   319 5   323 5   327
 5   334 5   324 5   317 5   299 5   301 5   287 5   268 5   268 5   262 5   253
 5   271 5   284 5   306 5   327 5   345 5   362 5   346 5   334 5   313 5   313
 5   323 5   360 5   436 5   559 5   775 5  1119 5  1649 5  2273 5  2754 5  2777
 5  2240 5  1545 5   950 5   583 5   392 5   384 5   397 5   483 5   608 5   709
 5   804 6   867 5   929 5  1006 5  1074 5  1020 5   911 5   819 5   811 5   814
 5   757 5   735 5   720 5   801 5   943 5  1069 5  1147 5  1027 5   834 5   643
 5   495 5   412 5   409 5   392 5   369 5   359 5   336 5   326 5   306 5   304
 5   289 5   289 5   278 5   281 5   282 5   288 5   283 5   279 5   280 5   297
 5   282 5   299 5   291 5   295 5   305 5   334 5   370 5   434 5   543 5   726
 5   887 4  1058 5  1173 5  1226 5  1286 5  1417 5  1598 5  1777 5  1733 5  1494
 5  1310 5  1138 5  1052 5  1140 5  1372 5  1619 5  1868 5  1930 5  1891 5  1666
 5  1302 5   959 5   651 5   468 5   423 5   392 5   399 5   427 5   425 5   444
 5   449 5   472 5   518 5   528 5   486 5   434 5   405 5   371 5   349 5   361
 5   345 5   338 5   356 5   362 5   382 5   461 5   513 5   596 5   679 5   735
 5   731 6   775 5   793 5   787 5   755 5   777 5   896 5  1061 5  1301 5  1595
 5  1835 5  1996 5  1990 5  1810 5  1516 5  1206 5  1027 5   885 5   857 5   910
 5   976 5  1108 5  1210 5  1179 5  1049 5   877 5   702 5   542 5   465 5   452
 5   454 5   486 5   564 5   667 5   861 5  1095 5  1264 5  1362 5  1423 5  1473
 5  1412 5  1273 5  1047 5   816 5   635 5   489 5   431 5   401 5   410 5   388
 6   412 5   430 5   446 5   435 5   439 5   434 5   425 5   430 5   420 5   415
 5   403 5   365 5   357 5   346 5   355 5   385 5   439 5   501 5   629 5   753
 5   865 5   939 5   899 5   769 5   630 5   493 5   458 5   439 5   493 5   486
 5   517 5   542 5   594 5   623 5   577 5   533 5   479 5   445 5   411 5   372
 5   366 5   363 5   351 5   365 5   386 5   396 5   438 5   452 5   453 5   446
 5   427 6   407 5   388 5   371 5   390 5   434 5   521 5   657 5   758 5   791
 5   718 5   616 5   497 5   451 5   423 5   437 5   458 5   496 5   554 5   619
 5   669 5   706 5   620 5   543 5   467 5   420 5   385 5   364 5   361 5   345
 5   357 5   365 5   387 5   439 5   532 5   614 5   720 5   708 5   683 5   680
 5   775 5  1042 5  1514 5  2269 5  3293 5  4268 5  4552 5  3892 5  2829 5  1839
 5  1168 5   905 5   824 5   865 5  1125 5  1714 5  2689 5  4042 5  5205 5  5354
 5  4684 5  3966 5  3402 5  2964 5  2332 5  1685 5  1162 5   920 5   849 5   897
 5   884 5   766 5   643 5   550 5   466 5   422 5   424 5   431 5   493 5   525
 5   526 5   495 5   489 5   453 5   432 5   430 5   415 5   414 5   399 5   396
 5   385 5   406 5   392 5   384 5   386 5   386 5   400 5   422 5   434 5   466
 6   530 6   630 5   720 5   767 5   765 5   676 5   600 5   547 5   575 5   668
 5   821 5   931 5  1002 5  1157 5  1586 5  2277 5  3171 5  3888 5  3885 5  3079
 5  2163 5  1398 5   887 5   658 5   607 5   570 5   548 5   532 5   540 5   543
 5   563 5   636 5   713 5   794 5   803 5   738 5   641 5   594 5   645 5   769
 5   913 5  1070 5  1051 5   943 5   854 5   775 5   803 5   811 5   780 5   666
 6   601 5   619 5   717 5   880 5  1043 5  1064 5   961 5   767 5   580 5   476
 5   419 5   421 5   466 5   525 5   548 5   577 5   559 5   543 5   539 5   516
 5   495 5   491 5   489 5   476 5   495 5   543 5   609 5   692 5   722 5   639
 5   601 5   517 5   481 5   455 5   434 5   419 5   396 5   442 5   516 5   672
 5  1053 5  1642 5  2441 5  3064 5  3252 5  2898 5  2364 5  1911 5  1588 5  1213
 4   866 4   641 5   545 5   471 5   462 5   483 5   472 5   504 5   532 5   638
 5   760 5   972 5  1269 5  1591 5  1781 5  1753 5  1474 5  1132 5   867 5   680
 5   593 5   593 5   596 5   588 5   625 5   638 5   669 5   731 5   780 5   782
 5   724 5   624 5   526 5   450 5   426 5   418 5   420 5   428 5   449 5   499
 5   558 5   624 5   653 5   787 5  1050 5  1536 5  2190 5  2563 5  2553 5  2257
 5  2099 5  2294 5  2618 5  2671 5  2366 5  1747 5  1226 5   903 5   795 5   815
 5   853 5   772 5   677 5   588 5   504 5   493 5   496 5   508 5   525 5   562
 5   598 5   683 5   815 5   948 5  1003 5  1060 5  1190 5  1455 5  1864 5  2258
 5  2622 5  2692 5  2352 5  1796 5  1234 5   875 5   715 5   734 5   910 5  1178
 5  1657 5  2164 5  2291 5  1926 5  1485 5  1177 5   983 5   897 5   817 5   789
 5   713 5   660 5   556 5   484 5   477 5   491 5   526 5   606 5   771 5   992
 5  1191 5  1255 5  1229 5  1147 5  1146 5  1266 5  1364 5  1291 5  1101 5   881
 5   719 5   667 5   651 5   680 5   784 5   913 5   958 5   901 5   795 5   633
 5   535 5   462 5   435 5   471 5   534 5   580 5   624 5   596 5   530 5   492
 5   440 5   409 5   420 5   442 5   431 5   433 5   419 5   409 5   430 5   428
 4   392 5   402 5   401 5   407 5   423 5   445 5   489 5   546 5   602 5   636
 5   627 5   579 5   535 5   539 5   626 5   791 5   970 5  1077 5  1006 5   908
 5   890 5   895 5   895 5   794 5   667 5   558 5   500 5   476 5   443 5   456
 5   473 5   532 5   591 5   601 5   553 5   490 5   473 5   487 5   553 5   645
 5   706 5   727 5   690 5   640 5   639 5   661 5   727 5   762 5   718 5   643
 4   555 5   507 5   521 5   571 5   644 5   742 5   879 5   922 5   867 5   789
 5   692 5   607 5   560 5   550 5   543 5   542 5   550 5   579 5   584 5   582
 5   601 5   660 5   797 5   966 5  1119 5  1165 5  1054 5   867 5   834 5   999
 5  1250 5  1392 5  1305 5  1067 5   863 5   781 5   791 5   862 5   921 5   928
 5   910 5   927 5   981 5   972 5   887 5   760 5   698 5   622 5   555 5   496
 5   439 6   450 5   470 5   501 5   518 5   513 5   492 5   501 5   532 5   528
 5   537 5   551 5   580 5   617 5   668 5   691 5   647 5   591 5   518 5   469
 5   437 5   422 5   407 5   416 5   431 5   425 5   423 5   444 5   460 5   461
 5   456 5   448 5   439 5   454 5   488 5   553 5   551 5   556 5   530 5   499
 5   497 5   504 5   482 5   461 5   470 5   453 5   481 5   520 5   538 5   551
 6   559 5   589 5   583 5   536 5   494 5   435 5   412 5   399 5   409 5   434
 5   457 5   475 5   463 5   451 5   468 5   446 5   428 5   416 5   426 5   427
 5   441 5   479 5   513 5   594 5   654 5   692 5   703 5   609 5   541 5   513
 5   524 5   615 5   736 5   834 5   821 5   721 5   642 5   627 5   663 5   726
 5   800 5   881 5   946 5   997 5  1042 5   988 5   918 5   832 5   807 5   900
 6  1061 5  1632 5  2342 5  2895 5  2806 5  2188 5  1510 5  1027 5   751 5   625
 5   622 5   595 5   591 5   583 5   611 5   649 5   660 5   615 5   551 5   498
 5   510 5   540 5   615 5   690 5   683 5   637 5   578 5   543 5   500 5   490
 5   472 5   456 5   454 5   416 5   434 5   431 5   455 5   457 5   500 5   539
 5   547 5   591 5   653 5   750 5   785 5   782 5   710 5   655 5   647 5   679
 4   731 5   777 5   823 5   855 5   826 5   722 5   639 5   575 5   519 5   520
 5   529 5   508 5   514 5   508 5   532 5   541 5   578 5   733 5   983 5  1242
 5  1331 5  1126 5   867 5   681 5   561 5   518 5   507 5   550 5   569 5   619
 5   706 5   838 5  1102 5  1504 5  1826 5  1840 5  1606 5  1283 5  1030 5   845
 5   793 5   868 5  1082 5  1444 5  1759 5  1770 5  1558 5  1376 5  1246 5  1128
 6  1053 5  1086 5  1275 5  1491 5  1574 5  1364 5  1052 5   811 5   717 5   734
 5   759 5   786 5   759 5   657 5   602 5   597 5   632 5   680 5   751 5   849
 5  1044 5  1446 5  2021 5  2264 5  2001 5  1516 5  1111 5   845 5   748 5   717
 5   685 5   687 5   671 5   633 5   593 5   575 5   580 5   588 5   603 5   613
 5   595 5   602 5   610 5   627 5   647 5   595 5   557 5   553 5   546 5   562
 5   577 5   611 5   640 5   610 5   624 5   576 5   570 5   598 5   645 5   680
 5   644 5   608 5   585 5   613 5   692 5   818 5  1057 5  1230 5  1357 5  1336
 5  1240 5  1204 5  1089 5   930 5   821 5   733 5   738 5   788 5   893 5   985
 5  1019 5  1061 5  1006 5  1000 5   963 5   870 5   824 5   850 5   990 5  1282
 5  1492 5  1561 5  1382 5  1096 5   840 5   695 5   629 5   596 5   605 5   582
 4   607 5   648 5   754 5   903 5  1219 5  1450 5  1430 5  1206 5   952 5   813
 5   766 5   843 5   973 5  1136 5  1145 5  1054 5   884 5   781 5   682 5   604
 5   595 5   554 5   538 5   560 5   569 5   553 5   534 5   517 5   497 5   495
 5   477 5   477 5   492 5   542 5   605 5   666 5   650 5   608 5   598 5   569
 5   568 5   561 5   549 5   574 5   569 5   619 5   634 5   663 5   740 5   864
 5  1097 5  1282 5  1299 5  1176 5   994 5   844 5   740 5   680 5   682 5   707
 5   735 5   716 5   706 5   730 5   739 5   714 5   743 5   765 5   847 5   876
 5   815 5   754 5   751 5   876 5  1181 5  1518 5  1682 5  1584 5  1244 5  1017
 5   968 5  1068 5  1227 5  1260 5  1132 5   966 5   843 5   787 5   710 5   669
 5   636 5   663 5   661 5   671 5   700 5   769 5   910 5  1105 5  1267 5  1247
 5  1119 5  1012 5   907 5   800 5   781 5   848 5   931 5   990 5  1073 5  1149
 5  1125 5   998 5   853 5   774 5   780 5   751 5   674 5   644 5   614 5   592
 5   577 5   545 5   532 5   534 5   546 5   570 5   585 5   591 5   636 5   661
 5   693 5   725 5   797 5   874 5  1158 5  1610 5  1883 5  1859 5  1552 5  1267
 5  1183 5  1235 5  1361 5  1467 5  1614 5  1799 5  1891 5  1633 5  1259 5   984
 5   810 5   727 5   638 5   604 5   578 5   595 5   616 5   621 5   610 5   647
 5   781 5   936 5  1056 5   998 5   883 5   755 5   688 5   614 5   601 5   608
 5   657 5   691 5   698 5   715 5   722 5   763 5   844 5   904 5   917 5   819
 5   737 5   662 5   630 5   659 5   704 5   720 5   706 5   685 5   667 5   625
 5   617 5   655 5   694 5   713 5   725 5   713 5   709 5   684 5   730 5   840
 6   865 5   890 5   827 5   788 5   798 5   760 5   790 5   902 5  1202 5  1676
 5  2005 5  1880 5  1488 5  1148 5   951 5   851 5   800 5   790 5   773 5   775
 5   772 5   787 5   780 5   794 5   756 5   719 5   723 5   709 5   741 5   817
 5   890 5   958 5   938 5   895 5   899 5  1090 5  1523 5  2044 5  2301 5  2049
 5  1566 5  1194 5   941 5   837 5   777 5   839 5   778 5   759 5   800 5   982
 6  1265 5  1525 5  1572 5  1389 5  1134 5   930 5   785 5   725 5   705 5   678
 5   704 5   705 5   678 5   664 5   638 5   676 5   715 5   728 5   694 5   688
 5   662 5   663 5   679 5   707 5   696 5   695 5   685 5   707 5   725 5   786
 5   816 5   825 5   802 5   701 5   662 5   652 5   641 5   621 5   672 5   746
 5   802 5   879 5   831 5   734 5   659 5   629 5   621 5   661 5   724 5   768
 6   738 5   780 5   806 5   758 5   742 5   689 5   695 5   759 5   839 5   922
 5   935 5   847 5   745 5   675 5   629 5   598 5   607 5   610 5   685 5   789
 5   920 5  1022 5  1094 5  1255 5  1420 5  1542 5  1494 5  1300 5  1113 5   998
 5   954 5   977 5  1113 5  1272 5  1370 5  1344 5  1156 5   987 5   826 5   776
 5   705 5   708 5   720 5   727 5   754 5   751 5   760 5   786 5   816 5   826
 6   864 5   871 5   846 5   804 5   731 5   695 5   666 5   650 5   695 5   696
 5   721 5   809 5   942 5  1129 5  1254 5  1438 5  1463 5  1327 5  1119 5   939
 5   831 5   766 5   758 5   808 5   928 5  1078 5  1053 5   976 5   927 5   907
 5   898 5   872 5   801 5   750 5   718 5   735 5   786 5   890 5  1003 5  1095
 5  1125 5  1001 5   833 5   731 5   649 5   616 5   641 5   662 5   691 5   715
 4   695 5   675 5   688 5   668 5   677 5   625 5   616 5   616 5   591 5   603
 5   607 5   591 5   592 5   664 5   757 5   820 5   823 5   805 5   785 5   782
 5   865 5   928 5   972 5   927 5   858 5   763 5   686 5   635 5   588 5   584
 5   595 5   585 5   613 5   627 5   644 5   623 5   603 5   622 5   605 5   679
 5   775 5   827 5   828 5   763 5   707 5   654 5   622 5   577 5   599 5   603
 4   616 5   641 5   678 5   690 5   693 5   684 5   694 5   673 5   645 5   644
 5   597 5   605 5   655 5   725 5   781 5   863 5   858 5   880 5   920 5   932
 5   898 5   829 5   807 5   785 5   777 5   770 5   733 5   733 5   724 5   739
 5   725 5   752 5   826 5   996 5  1231 5  1398 5  1471 5  1396 5  1225 5  1036
 5   937 5   830 5   752 5   740 5   715 5   660 5   655 5   654 5   654 5   678
 5   704 5   738 5   784 5   874 5   939 5   938 5   902 5   862 5   829 5   821
 5   777 5   730 5   676 5   636 5   615 5   599 5   611 5   638 5   649 5   681
 5   692 5   764 5   904 5  1066 5  1226 5  1254 5  1148 5   985 5   844 5   783
 5   775 5   798 5   768 5   775 5   818 5   891 5  1044 5  1198 5  1234 5  1194
 5  1055 5   887 5   765 5   688 5   663 5   669 5   640 5   633 5   610 5   595
 5   616 5   637 5   682 5   720 5   750 5   742 5   705 5   713 5   725 5   770
 5   795 5   817 5   850 5   883 5   942 5  1008 5  1090 5  1124 5  1095 5  1066
 5   967 5   870 5   785 5   767 5   738 5   777 5   812 5   889 5   944 5   909
 5   875 5   850 5   820 5   859 5   903 5   905 5   930 5   924 5   893 5   855
 5   877 5   974 5  1067 5  1102 5  1131 5  1055 5   957 5   872 5   834 5   806
 4   751 5   737 5   714 5   704 5   685 5   677 5   668 5   661 5   679 5   696
 5   712 5   716 5   694 5   699 5   686 5   673 5   682 5   653 5   625 5   624
 5   640 5   645 5   618 5   613 5   642 5   661 5   666 5   677 5   687 5   698
 5   719 5   742 5   756 5   758 5   740 5   708 5   677 5   701 5   774 5   820
 5   823 5   799 5   733 5   656 5   626 5   612 5   609 5   611 5   611 5   621
 6   644 5   620 5   635 5   616 5   618 5   632 5   633 5   638 5   660 5   634
 5   642 5   658 5   666 5   682 5   698 5   777 5   863 5   933 5   982 5   984
 5   932 5   863 5   798 5   767 5   815 5   829 5   849 5   980 5  1013 5  1043
 5  1044 5   967 5   843 5   741 5   712 5   703 5   762 5   862 5   955 5   941
 5   918 5   866 5   798 5   763 5   764 5   787 5   839 5   935 5   972 5   969
 6   999 5   946 5   922 5   931 5   931 5   919 5   847 5   842 5   879 5   940
 5   994 5  1054 5  1039 5  1020 5   980 5   956 5   955 5  1015 5  1081 5  1162
 5  1220 5  1170 5  1050 5   890 5   767 5   727 5   748 5   782 5   828 5   875
 5   872 5   830 5   795 5   739 5   716 5   722 5   783 5   831 5   916 5   999
 5  1024 5  1033 5  1043 5  1038 5  1060 5  1141 5  1149 5  1112 5  1088 5  1042
 5   975 5   897 5   831 5   789 5   756 5   748 5   745 5   726 5   719 5   727
 5   699 5   699 5   688 5   657 5   661 5   670 5   659 5   671 5   658 5   654
 5   647 5   654 5   695 5   766 5   841 5   950 5  1009 5  1026 5  1052 5  1020
 5   939 5   855 5   767 5   694 5   665 5   628 5   638 5   628 5   636 5   651
 5   661 5   654 5   705 5   713 5   723 5   727 5   750 5   729 5   689 5   674
 5   663 5   703 5   703 5   749 5   816 5   871 5   964 5  1024 5  1066 5  1074
 5  1062 5  1001 5   917 5   832 5   795 5   806 5   832 5   841 5   847 5   833
 5   856 5   838 5   790 5   738 5   693 5   652 5   638 5   630 5   608 5   634
 5   623 5   626 5   644 5   648 5   667 5   649 5   642 5   660 5   665 5   671
 5   687 5   699 5   714 5   722 5   711 5   681 5   664 5   678 5   718 5   793
 5   839 5   839 5   873 5   871 5   841 5   834 5   821 5   866 5   896 5   941
 5   969 5   965 5   919 5   901 5   834 5   799 5   777 5   755 5   800 5   803
 5   839 5   876 5   861 5   877 5   871 5   845 5   793 5   740 5   686 5   690
 5   660 5   632 5   643 5   640 5   624 5   651 5   668 5   661 5   681 5   722
 5   726 5   757 5   785 5   811 5   880 5   897 5   886 5   917 5   928 5   871
 5   833 5   797 5   774 5   777 5   766 5   774 5   772 5   764 5   741 5   717
 5   694 5   666 5   664 5   684 5   666 5   668 5   695 5   700 5   733 5   790
 5   793 5   813 5   839 5   851 5   849 5   832 5   837 5   850 5   870 5   868
 5   868 5   856 5   816 5   803 5   753 5   716 5   706 5   708 5   693 5   661
 5   675 5   655 5   621 5   653 5   636 5   672 5   707 5   730 5   782 5   793
 5   838 5   815 5   829 5   865 5   816 5   782 5   767 5   749 5   765 5   740
 5   703 5   721 5   742 5   737 5   738 5   747 5   755 5   749 5   743 5   756
 5   749 5   718 5   683 5   658 5   660 5   633 5   599 5   611 5   646 5   663
 5   709 5   754 5   775 5   798 5   811 5   819 5   786 5   724 5   672 5   648
 5   610 5   597 5   611 5   618 5   626 5   648 5   670 5   695 5   733 5   735
 5   750 5   735 5   743 5   736 5   760 5   760 5   737 5   742 5   732 5   715
 5   678 5   653 5   634 5   595 5   588 5   578 5   570 5   580 5   594 5   575
 5   594 5   639 5   671 5   701 5   730 5   741 5   756 5   770 5   790 5   810
 5   826 5   828 5   832 5   869 5   925 5   910 5   935 5   937 5   931 5   946
 5   975 5  1004 5  1029 5  1056 5  1102 5  1115 5  1120 5  1117 5  1101 5  1073
 5  1058 5  1041 5   982 5   921 5   869 5   773 5   750 5   716 5   706 5   717
 5   718 5   776 5   784 5   843 5   875 5   873 5   925 5   956 5   964 5   977
 5   980 5   954 5   931 5   916 5   898 5   826 5   802 5   754 5   740 5   742
 5   736 5   724 5   696 5   653 5   638 5   643 5   623 5   637 5   637 5   669
 5   698 5   705 5   743 5   773 5   796 5   801 5   792 5   782 5   773 5   763
 6   729 5   712 5   709 5   734 5   773 5   798 5   848 5   922 5   952 5   996
 5  1015 5  1025 5  1027 5   993 5   945 5   873 5   808 5   790 5   767 5   755
 5   739 5   760 5   740 5   733 5   722 5   717 5   692 5   687 5   656 5   651
 5   649 5   677 5   713 5   751 5   757 5   770 5   801 5   770 5   811 5   817
 5   822 5   765 5   766 5   724 5   709 5   699 5   713 5   738 5   726 5   678
 5   703 5   727 5   783 5   809 5   846 5   870 5   909 5   924 5   972 5   959
 5   929 5   920 5   868 5   790 5   705 5   694 5   658 5   639 5   626 5   607
 5   623 5   605 5   616 5   630 5   652 5   654 5   663 5   674 5   647 5   687
 5   698 5   688 5   676 5   650 5   645 5   661 5   647 5   637 5   638 5   636
 5   630 5   639 5   648 5   645 5   682 5   676 5   693 5   708 5   717 6   714
 5   759 5   735 5   732 5   750 5   733 5   730 5   708 5   675 5   666 5   656
 5   652 5   635 5   645 5   667 5   670 5   691 5   686 5   708 5   751 5   760
 5   749 5   765 5   769 5   756 5   759 5   765 5   781 5   808 5   834 5   886
 5   920 5   933 5   992 5  1001 5  1002 5   960 5   976 5   965 5   932 5   889
 5   814 5   799 5   754 5   755 5   760 5   746 5   762 5   763 5   776 5   776
 5   784 5   778 5   783 5   785 5   777 5   773 5   750 5   736 5   728 5   713
 5   689 5   676 5   647 5   662 5   634 5   635 5   645 5   638 5   642 5   614
 5   624 5   606 5   611 5   609 5   614 5   610 5   612 5   605 5   592 5   616
 5   637 5   645 5   634 5   643 5   628 5   654 5   647 5   668 5   672 5   664
 5   671 5   670 5   690 5   688 5   681 5   680 5   689 5   690 5   685 5   712
 5   717 5   727 5   719 5   714 5   761 5   726 5   743 5   763 5   756 5   741
 5   716 5   715 5   691 5   657 5   626 5   622 5   616 5   620 5   610 5   611
 5   644 5   630 5   660 5   666 5   685 5   660 5   690 5   705 5   694 5   708
 5   717 5   709 5   735 5   719 5   719 5   704 5   720 5   739 5   702 5   697
 5   687 5   693 5   704 5   700 5   695 5   683 5   693 5   657 5   675 5   674
 5   644 5   634 5   640 5   621 5   598 5   598 5   596 5   590 5   615 5   605
 5   609 5   611 5   629 5   631 5   656 5   646 5   698 5   697 5   678 5   688
 5   694 5   721 5   719 5   721 5   717 5   752 5   735 5   732 5   746 5   743
 5   744 5   715 5   715 5   722 5   699 5   713 5   724 5   718 5   727 5   736
 5   754 5   738 5   763 5   778 5   781 5   778 5   773 5   770 5   766 5   770
 5   750 5   716 5   690 5   681 5   671 5   679 5   686 5   656 5   629 5   655
 5   625 5   648 5   628 5   640 5   622 5   631 5   615 5   620 5   611 5   603
 5   629 5   626 5   629 5   615 5   627 5   621 5   631 5   616 5   637 5   660
 5   671 5   672 5   674 5   658 5   682 5   685 5   702 5   705 5   716 5   713
 5   746 5   744 5   744 5   756 5   753 5   752 5   760 5   765 5   740 4   724
 4   731 4   722 4   724 4   713 4   711 4   721 4   742 4   732 4   735 4   756
 4   739 4   714 4   703 4   706 4   687 4   676 4   693 4   708 4   715 4   687
 4   697 4   710 4   698 4   715 4   717 4   727 4   737 4   728 4   719 4   732
 4   752 4   749 4   707 4   750 4   756 4   717 4   745 4   742 4   751 4   745
 4   714 4   740 4   758 4   776 4   744 4   758 4   795 4   762 4   752 4   760
 3   802 3   791 3   784 3   792 3   810 3   825 3   839 3   880 3   852 3   830
 3   812 3   822 3   777 3   795 3   755 3   785 3   708 3   707 3   715 3   734
 3   739 3   702 3   713 3   724 3   733 3   712 3   734 3   728 3   728 3   726
 3   682 3   728 3   738 3   745 3   756 3   740 3   750 3   759 3   782 3   799
 3   795 3   792 3   773 3   822 3   834 3   794 3   784 3   809 3   781 3   805
 2   773 2   792 2   768 2   772 2   713 2   725 2   737 2   717 2   760 2   744
 2   771 2   741 2   741 2   801 2   781 2   778 2   765 2   789 2   816 2   803
 2   847 2   825 2   850 2   846 2   865 2   846 2   863 2   885 2   869 2   835
 2   832 2   820 2   837 2   817 2   778 2   749 2   797 2   771 2   753 2   723
 2   706 2   736 2   728 2   720 2   710 2   661 2   691 2   729 2   672 2   661
 1   624 1   659 1   634 1   664 1   619 1   661 1   667 1   616 1   629 1   638
 1   616 1   617 1   543 1   641 1   595 1   579 1   614 1   584 1   595 1   602
 1   572 1   574 1   557 1   561 1   591 1   583 1   565 1   558 1   580 1   561
 1   519 1   530 1   595 1   549 1   545 1   537 1   508 1   535 1   564 1   521
 1   512 1   514 1   502 1   541 1   481 1   523 1   490 1   519 1   470 1   454



;
_cod_data_source_file            Pb5CrO8-neutrons.cif
_cod_data_source_block           Pb5CrO8
_cod_original_sg_symbol_H-M      'P 21/c'
_cod_database_code               3500065
_pd_proc_ls_prof_cr_factor       6.5773
_pd_proc_ls_prof_cwr_factor      7.6635
_pd_proc_ls_prof_cwr_expected    3.1593
_pd_proc_ls_prof_chi2            5.8841
_pd_proc_ls_prof_echi2           5.8841
loop_
_publ_manuscript_incl_extra_item
_publ_manuscript_incl_extra_info
_publ_manuscript_incl_extra_defn
'_pd_proc_ls_prof_cR_factor' 'Prof. R-factor CORRECTED for background' no
'_pd_proc_ls_prof_cwR_factor' 'wProf.R-factor CORRECTED for background' no
'_pd_proc_ls_prof_cwR_expected' 'wProf.Expected CORRECTED for background' no
'_pd_proc_ls_prof_chi2' 'Chi-square for all considered points' no
'_pd_proc_ls_prof_echi2' 'Chi-2 for points with Bragg contribution' no
loop_
_symmetry_equiv_pos_site_id
_symmetry_equiv_pos_as_xyz
1 x,y,z
2 -x,1/2+y,1/2-z
3 -x,-y,-z
4 x,1/2-y,1/2+z
loop_
_atom_site_label
_atom_site_type_symbol
_atom_site_thermal_displace_type
_atom_site_fract_x
_atom_site_fract_y
_atom_site_fract_z
_atom_site_occupancy
_atom_site_U_iso_or_equiv
_atom_site_calc_flag
_atom_site_refinement_flags
_atom_site_disorder_assembly
_atom_site_disorder_group
Pb1 Pb Uiso 0.1891(4) 0.2435(6) 0.1122(6) 1.000 0.0196(11) . . . .
Pb2 Pb Uiso 0.4264(4) 0.2531(6) 0.1167(6) 1.000 0.0196(11) . . . .
Pb3 Pb Uiso 0.7043(4) 0.2511(6) 0.1091(6) 1.000 0.0177(10) . . . .
Pb4 Pb Uiso 0.9389(4) 0.2654(6) 0.1008(5) 1.000 0.0177(10) . . . .
Pb5 Pb Uiso 0.1906(4) 0.5775(7) 0.1393(5) 1.000 0.0171(9) . . . .
Pb6 Pb Uiso 0.6776(4) 0.5769(7) 0.1283(5) 1.000 0.0171(9) . . . .
Pb7 Pb Uiso 0.1882(5) 0.9136(6) 0.1131(7) 1.000 0.0168(10) . . . .
Pb8 Pb Uiso 0.4379(5) 0.9291(6) 0.1086(6) 1.000 0.0168(10) . . . .
Pb9 Pb Uiso 0.6898(5) 0.9114(7) 0.1080(7) 1.000 0.0164(10) . . . .
Pb10 Pb Uiso 0.9364(4) 0.9462(5) 0.1192(6) 1.000 0.0164(10) . . . .
Cr1 Cr Uiso 0.4311(14) 0.6065(15) 0.154(2) 1.000 0.026(2) . . . .
Cr2 Cr Uiso 0.9258(13) 0.5909(15) 0.1516(19) 1.000 0.026(2) . . . .
O1 O Uiso 0.1859(8) 0.0823(10) 0.0052(10) 1.000 0.0188(18) . . . .
O2 O Uiso 0.4395(8) 0.0911(10) 0.0062(10) 1.000 0.0188(18) . . . .
O3 O Uiso 0.6845(7) 0.0910(10) 0.0109(10) 1.000 0.0174(18) . . . .
O4 O Uiso 0.9459(7) 0.0999(8) -0.0051(10) 1.000 0.0174(18) . . . .
O5 O Uiso 0.1824(6) 0.7241(10) 0.0232(9) 1.000 0.0166(13) . . . .
O6 O Uiso 0.6920(7) 0.7259(10) 0.0144(9) 1.000 0.0166(13) . . . .
O7 O Uiso 0.8283(7) 0.1742(11) 0.2042(11) 1.000 0.0281(13) . . . .
O8 O Uiso 0.3125(8) 0.1770(10) 0.2088(11) 1.000 0.0281(13) . . . .
O9 O Uiso 0.3475(9) 0.6999(11) 0.1537(11) 1.000 0.054(3) . . . .
O10 O Uiso 0.4455(9) 0.5870(13) 0.2929(14) 1.000 0.054(3) . . . .
O11 O Uiso 0.3974(9) 0.4912(12) 0.0890(12) 1.000 0.062(3) . . . .
O12 O Uiso 0.5198(10) 0.6667(11) 0.1019(12) 1.000 0.062(3) . . . .
O13 O Uiso 0.0289(7) 0.5505(8) 0.1087(9) 1.000 0.034(2) . . . .
O14 O Uiso 0.9284(8) 0.5941(10) 0.2942(11) 1.000 0.034(2) . . . .
O15 O Uiso 0.8502(8) 0.5086(10) 0.1024(9) 1.000 0.043(2) . . . .
O16 O Uiso 0.9125(6) 0.7212(9) 0.1046(10) 1.000 0.043(2) . . . .
loop_
_atom_type_symbol
_atom_type_scat_length_neutron
_atom_type_scat_source
Pb 0.94050 V.F._Sears_Neutron_News_3_26_(1992)
Cr 0.36350 V.F._Sears_Neutron_News_3_26_(1992)
O 0.58030 V.F._Sears_Neutron_News_3_26_(1992)
loop_
_geom_angle_atom_site_label_1
_geom_angle_atom_site_label_2
_geom_angle_atom_site_label_3
_geom_angle
_geom_angle_site_symmetry_1
_geom_angle_site_symmetry_2
_geom_angle_site_symmetry_3
_geom_angle_publ_flag
O1 Pb1 O8 89.7(5) . . . yes
O1 Pb1 O14 71.0(4) . . 2_645 yes
O1 Pb1 O6 78.0(5) . . 3_665 yes
O1 Pb1 O16 69.0(4) . . 3_665 yes
O8 Pb1 O14 95.7(5) . . 2_645 yes
O6 Pb1 O8 75.7(4) 3_665 . . yes
O8 Pb1 O16 150.3(5) . . 3_665 yes
O6 Pb1 O14 147.9(5) 3_665 . 2_645 yes
O14 Pb1 O16 96.3(4) 2_645 . 3_665 yes
O6 Pb1 O16 79.7(4) 3_665 . 3_665 yes
O2 Pb2 O8 90.6(5) . . . yes
O2 Pb2 O11 139.6(5) . . . yes
O2 Pb2 O10 65.7(5) . . 2_645 yes
O2 Pb2 O6 78.0(5) . . 3_665 yes
O2 Pb2 O12 75.3(4) . . 3_665 yes
O8 Pb2 O11 109.7(5) . . . yes
O8 Pb2 O10 93.2(5) . . 2_645 yes
O6 Pb2 O8 77.5(5) 3_665 . . yes
O8 Pb2 O12 143.0(5) . . 3_665 yes
O10 Pb2 O11 142.8(5) 2_645 . . yes
O6 Pb2 O11 73.1(4) 3_665 . . yes
O11 Pb2 O12 67.5(4) . . 3_665 yes
O6 Pb2 O10 142.4(5) 3_665 . 2_645 yes
O10 Pb2 O12 110.7(5) 2_645 . 3_665 yes
O6 Pb2 O12 66.3(4) 3_665 . 3_665 yes
O3 Pb3 O7 90.8(5) . . . yes
O3 Pb3 O9 106.0(5) . . 2_645 yes
O3 Pb3 O5 81.7(5) . . 3_665 yes
O7 Pb3 O9 72.0(4) . . 2_645 yes
O5 Pb3 O7 77.6(4) 3_665 . . yes
O5 Pb3 O9 148.6(4) 3_665 . 2_645 yes
O4 Pb4 O7 85.8(5) . . . yes
O4 Pb4 O5 75.6(4) . . 3_665 yes
O5 Pb4 O7 78.1(4) 3_665 . . yes
O5 Pb5 O9 70.4(4) . . . yes
O5 Pb5 O13 88.2(4) . . . yes
O5 Pb5 O7 95.8(5) . . 2_655 yes
O5 Pb5 O15 71.5(4) . . 3_665 yes
O9 Pb5 O13 155.5(5) . . . yes
O7 Pb5 O9 78.3(4) 2_655 . . yes
O9 Pb5 O15 112.7(4) . . 3_665 yes
O7 Pb5 O13 92.8(4) 2_655 . . yes
O13 Pb5 O15 69.0(4) . . 3_665 yes
O7 Pb5 O15 157.6(5) 2_655 . 3_665 yes
O6 Pb6 O12 72.7(5) . . . yes
O6 Pb6 O15 93.8(4) . . . yes
O6 Pb6 O8 95.0(5) . . 2_655 yes
O6 Pb6 O11 74.4(4) . . 3_665 yes
O12 Pb6 O15 165.1(5) . . . yes
O8 Pb6 O12 86.2(5) 2_655 . . yes
O11 Pb6 O12 70.7(4) 3_665 . . yes
O8 Pb6 O15 101.6(4) 2_655 . . yes
O11 Pb6 O15 100.1(4) 3_665 . . yes
O8 Pb6 O11 156.5(5) 2_655 . 3_665 yes
O1 Pb7 O5 122.4(5) 1_565 . . yes
O5 Pb7 O14 142.0(4) . . 2_655 yes
O3 Pb7 O5 75.3(4) 3_665 . . yes
O4 Pb7 O5 71.8(4) 3_665 . . yes
O1 Pb7 O14 65.6(4) 1_565 . 2_655 yes
O1 Pb7 O3 72.6(5) 1_565 . 3_665 yes
O1 Pb7 O4 76.4(4) 1_565 . 3_665 yes
O3 Pb7 O14 135.2(5) 3_665 . 2_655 yes
O4 Pb7 O14 75.2(4) 3_665 . 2_655 yes
O3 Pb7 O4 110.4(5) 3_665 . 3_665 yes
O2 Pb8 O9 147.7(5) 1_565 . . yes
O9 Pb8 O10 142.3(5) . . 2_655 yes
O2 Pb8 O9 111.5(5) 3_665 . . yes
O3 Pb8 O9 70.5(4) 3_665 . . yes
O2 Pb8 O10 69.0(5) 1_565 . 2_655 yes
O2 Pb8 O2 76.2(5) 1_565 . 3_665 yes
O2 Pb8 O3 77.3(5) 1_565 . 3_665 yes
O2 Pb8 O10 79.2(5) 3_665 . 2_655 yes
O3 Pb8 O10 143.8(5) 3_665 . 2_655 yes
O2 Pb8 O3 105.5(5) 3_665 . 3_665 yes
O3 Pb9 O6 125.3(5) 1_565 . . yes
O1 Pb9 O6 75.8(5) 3_665 . . yes
O2 Pb9 O6 75.5(4) 3_665 . . yes
O1 Pb9 O3 73.7(5) 3_665 . 1_565 yes
O2 Pb9 O3 73.8(5) 3_665 . 1_565 yes
O1 Pb9 O2 109.9(5) 3_665 . 3_665 yes
O4 Pb10 O16 137.7(5) 1_565 . . yes
O14 Pb10 O16 136.3(4) 2_755 . . yes
O1 Pb10 O16 73.5(4) 3_665 . . yes
O4 Pb10 O16 80.3(4) 3_765 . . yes
O4 Pb10 O14 72.2(4) 1_565 . 2_755 yes
O1 Pb10 O4 77.2(4) 3_665 . 1_565 yes
O4 Pb10 O4 76.4(4) 1_565 . 3_765 yes
O1 Pb10 O14 148.5(5) 3_665 . 2_755 yes
O4 Pb10 O14 78.8(4) 3_765 . 2_755 yes
O1 Pb10 O4 101.7(5) 3_665 . 3_765 yes
O9 Cr1 O10 100.3(13) . . . yes
O9 Cr1 O11 108.9(14) . . . yes
O9 Cr1 O12 109.0(12) . . . yes
O10 Cr1 O11 112.1(13) . . . yes
O10 Cr1 O12 109.6(14) . . . yes
O11 Cr1 O12 115.8(15) . . . yes
O14 Cr2 O15 112.3(13) . . . yes
O14 Cr2 O16 108.3(12) . . . yes
O13 Cr2 O14 107.2(12) 1_655 . . yes
O15 Cr2 O16 111.7(13) . . . yes
O13 Cr2 O15 111.4(12) 1_655 . . yes
O13 Cr2 O16 105.6(12) 1_655 . . yes
Pb1 O1 Pb7 114.3(6) . . 1_545 yes
Pb1 O1 Pb9 106.3(5) . . 3_665 yes
Pb1 O1 Pb10 118.1(5) . . 3_665 yes
Pb7 O1 Pb9 109.3(6) 1_545 . 3_665 yes
Pb7 O1 Pb10 102.5(5) 1_545 . 3_665 yes
Pb9 O1 Pb10 106.0(5) 3_665 . 3_665 yes
Pb2 O2 Pb8 113.6(6) . . 1_545 yes
Pb2 O2 Pb8 119.1(6) . . 3_665 yes
Pb2 O2 Pb9 104.7(5) . . 3_665 yes
Pb8 O2 Pb8 103.8(5) 1_545 . 3_665 yes
Pb8 O2 Pb9 106.1(5) 1_545 . 3_665 yes
Pb8 O2 Pb9 108.9(5) 3_665 . 3_665 yes
Pb3 O3 Pb9 120.0(6) . . 1_545 yes
Pb3 O3 Pb7 103.3(5) . . 3_665 yes
Pb3 O3 Pb8 119.9(5) . . 3_665 yes
Pb7 O3 Pb9 104.1(5) 3_665 . 1_545 yes
Pb8 O3 Pb9 102.5(5) 3_665 . 1_545 yes
Pb7 O3 Pb8 105.1(5) 3_665 . 3_665 yes
Pb4 O4 Pb10 108.6(5) . . 1_545 yes
Pb4 O4 Pb7 107.3(5) . . 3_665 yes
Pb4 O4 Pb10 123.6(5) . . 3_765 yes
Pb7 O4 Pb10 102.8(4) 3_665 . 1_545 yes
Pb10 O4 Pb10 103.6(4) 1_545 . 3_765 yes
Pb7 O4 Pb10 109.0(5) 3_665 . 3_765 yes
Pb5 O5 Pb7 116.6(5) . . . yes
Pb3 O5 Pb5 118.3(5) 3_665 . . yes
Pb4 O5 Pb5 117.7(5) 3_665 . . yes
Pb3 O5 Pb7 98.5(5) 3_665 . . yes
Pb4 O5 Pb7 103.9(5) 3_665 . . yes
Pb3 O5 Pb4 98.5(5) 3_665 . 3_665 yes
Pb6 O6 Pb9 116.0(5) . . . yes
Pb1 O6 Pb6 125.4(5) 3_665 . . yes
Pb2 O6 Pb6 113.5(5) 3_665 . . yes
Pb1 O6 Pb9 99.2(5) 3_665 . . yes
Pb2 O6 Pb9 100.6(5) 3_665 . . yes
Pb1 O6 Pb2 98.2(5) 3_665 . 3_665 yes
Pb3 O7 Pb4 97.9(5) . . . yes
Pb3 O7 Pb5 119.4(5) . . 2_645 yes
Pb4 O7 Pb5 141.4(6) . . 2_645 yes
Pb1 O8 Pb2 103.9(6) . . . yes
Pb1 O8 Pb6 129.9(6) . . 2_645 yes
Pb2 O8 Pb6 125.8(6) . . 2_645 yes
Pb5 O9 Pb8 145.8(5) . . . yes
Pb5 O9 Cr1 106.9(9) . . . yes
Pb3 O9 Pb5 85.9(4) 2_655 . . yes
Pb8 O9 Cr1 104.5(9) . . . yes
Pb3 O9 Pb8 96.0(4) 2_655 . . yes
Pb3 O9 Cr1 110.0(10) 2_655 . . yes
Pb8 O10 Cr1 124.7(10) 2_645 . . yes
Pb2 O10 Cr1 109.6(10) 2_655 . . yes
Pb2 O10 Pb8 84.1(4) 2_655 . 2_645 yes
Pb2 O11 Cr1 136.1(10) . . . yes
Pb2 O11 Pb6 83.2(4) . . 3_665 yes
Pb6 O11 Cr1 139.2(11) 3_665 . . yes
Pb6 O12 Cr1 121.3(10) . . . yes
Pb2 O12 Pb6 88.4(5) 3_665 . . yes
Pb2 O12 Cr1 136.2(11) 3_665 . . yes
Pb5 O13 Cr2 144.7(9) . . 1_455 yes
Pb7 O14 Cr2 110.2(8) 2_645 . . yes
Pb1 O14 Cr2 114.3(9) 2_655 . . yes
Pb10 O14 Cr2 110.3(9) 2_745 . . yes
Pb1 O14 Pb7 86.0(4) 2_655 . 2_645 yes
Pb7 O14 Pb10 81.2(4) 2_645 . 2_745 yes
Pb1 O14 Pb10 135.3(5) 2_655 . 2_745 yes
Pb6 O15 Cr2 116.6(9) . . . yes
Pb5 O15 Pb6 91.6(4) 3_665 . . yes
Pb5 O15 Cr2 131.8(10) 3_665 . . yes
Pb10 O16 Cr2 152.7(10) . . . yes
Pb1 O16 Pb10 88.9(4) 3_665 . . yes
Pb1 O16 Cr2 118.4(9) 3_665 . . yes
loop_
_geom_bond_atom_site_label_1
_geom_bond_atom_site_label_2
_geom_bond_distance
_geom_bond_site_symmetry_1
_geom_bond_site_symmetry_2
_geom_bond_publ_flag
Pb1 O1 2.260(14) . . yes
Pb1 O8 2.268(14) . . yes
Pb1 O14 2.710(14) . 2_645 yes
Pb1 O6 2.343(12) . 3_665 yes
Pb1 O16 2.941(13) . 3_665 yes
Pb2 O2 2.300(14) . . yes
Pb2 O8 2.204(14) . . yes
Pb2 O11 2.839(16) . . yes
Pb2 O10 2.903(16) . 2_645 yes
Pb2 O6 2.318(12) . 3_665 yes
Pb2 O12 2.834(16) . 3_665 yes
Pb3 O3 2.211(14) . . yes
Pb3 O7 2.312(13) . . yes
Pb3 O9 2.934(15) . 2_645 yes
Pb3 O5 2.315(12) . 3_665 yes
Pb4 O4 2.299(12) . . yes
Pb4 O7 2.311(13) . . yes
Pb4 O5 2.289(11) . 3_665 yes
Pb5 O5 2.185(13) . . yes
Pb5 O9 2.736(15) . . yes
Pb5 O13 2.440(12) . . yes
Pb5 O7 2.164(14) . 2_655 yes
Pb5 O15 3.034(12) . 3_665 yes
Pb6 O6 2.202(13) . . yes
Pb6 O12 2.580(16) . . yes
Pb6 O15 2.704(13) . . yes
Pb6 O8 2.228(14) . 2_655 yes
Pb6 O11 2.854(15) . 3_665 yes
Pb7 O5 2.453(14) . . yes
Pb7 O1 2.339(14) . 1_565 yes
Pb7 O14 2.947(14) . 2_655 yes
Pb7 O3 2.395(13) . 3_665 yes
Pb7 O4 2.339(13) . 3_665 yes
Pb8 O9 3.050(15) . . yes
Pb8 O2 2.239(14) . 1_565 yes
Pb8 O10 2.766(16) . 2_655 yes
Pb8 O2 2.286(14) . 3_665 yes
Pb8 O3 2.278(13) . 3_665 yes
Pb9 O6 2.430(14) . . yes
Pb9 O3 2.387(14) . 1_565 yes
Pb9 O1 2.284(14) . 3_665 yes
Pb9 O2 2.313(14) . 3_665 yes
Pb10 O16 2.664(12) . . yes
Pb10 O4 2.313(12) . 1_565 yes
Pb10 O14 2.822(13) . 2_755 yes
Pb10 O1 2.324(13) . 3_665 yes
Pb10 O4 2.275(12) . 3_765 yes
Cr1 O9 1.65(2) . . yes
Cr1 O10 1.64(3) . . yes
Cr1 O11 1.62(2) . . yes
Cr1 O12 1.62(3) . . yes
Cr2 O14 1.66(3) . . yes
Cr2 O15 1.58(2) . . yes
Cr2 O16 1.63(2) . . yes
Cr2 O13 1.69(2) . 1_655 yes
loop_
_geom_torsion_atom_site_label_1
_geom_torsion_atom_site_label_2
_geom_torsion_atom_site_label_3
_geom_torsion_atom_site_label_4
_geom_torsion
_geom_torsion_site_symmetry_1
_geom_torsion_site_symmetry_2
_geom_torsion_site_symmetry_3
_geom_torsion_site_symmetry_4
_geom_torsion_publ_flag
O8 Pb1 O1 Pb7 52.4(6) . . . 1_545 no
O8 Pb1 O1 Pb9 -68.3(6) . . . 3_665 no
O8 Pb1 O1 Pb10 172.9(6) . . . 3_665 no
O14 Pb1 O1 Pb7 -43.8(5) 2_645 . . 1_545 no
O14 Pb1 O1 Pb9 -164.4(6) 2_645 . . 3_665 no
O14 Pb1 O1 Pb10 76.8(6) 2_645 . . 3_665 no
O6 Pb1 O1 Pb7 127.8(6) 3_665 . . 1_545 no
O6 Pb1 O1 Pb9 7.2(5) 3_665 . . 3_665 no
O6 Pb1 O1 Pb10 -111.6(6) 3_665 . . 3_665 no
O16 Pb1 O1 Pb7 -148.7(6) 3_665 . . 1_545 no
O16 Pb1 O1 Pb9 90.7(5) 3_665 . . 3_665 no
O16 Pb1 O1 Pb10 -28.1(5) 3_665 . . 3_665 no
O1 Pb1 O8 Pb2 94.8(6) . . . . no
O1 Pb1 O8 Pb6 -92.4(8) . . . 2_645 no
O14 Pb1 O8 Pb2 165.6(5) 2_645 . . . no
O14 Pb1 O8 Pb6 -21.5(8) 2_645 . . 2_645 no
O6 Pb1 O8 Pb2 17.1(5) 3_665 . . . no
O6 Pb1 O8 Pb6 -170.0(8) 3_665 . . 2_645 no
O16 Pb1 O8 Pb2 52.1(11) 3_665 . . . no
O16 Pb1 O8 Pb6 -135.0(8) 3_665 . . 2_645 no
O1 Pb1 O14 Pb7 30.1(4) . . 2_645 1_545 no
O1 Pb1 O14 Cr2 140.5(10) . . 2_645 2_645 no
O8 Pb1 O14 Pb7 -57.6(5) . . 2_645 1_545 no
O8 Pb1 O14 Cr2 52.9(10) . . 2_645 2_645 no
O1 Pb1 O6 Pb2 -108.7(5) . . 3_665 . no
O1 Pb1 O6 Pb6 124.7(7) . . 3_665 3_665 no
O1 Pb1 O6 Pb9 -6.6(5) . . 3_665 3_665 no
O8 Pb1 O6 Pb2 -16.0(5) . . 3_665 . no
O8 Pb1 O6 Pb6 -142.5(7) . . 3_665 3_665 no
O8 Pb1 O6 Pb9 86.2(5) . . 3_665 3_665 no
O14 Pb1 O6 Pb2 -93.6(9) 2_645 . 3_665 . no
O16 Pb1 O6 Pb2 -179.2(5) 3_665 . 3_665 . no
O1 Pb1 O16 Pb10 21.3(4) . . 3_665 3_665 no
O1 Pb1 O16 Cr2 -159.0(10) . . 3_665 3_665 no
O8 Pb1 O16 Pb10 67.9(10) . . 3_665 3_665 no
O8 Pb1 O16 Cr2 -112.4(13) . . 3_665 3_665 no
O8 Pb2 O2 Pb8 -47.4(6) . . . 1_545 no
O8 Pb2 O2 Pb8 -170.2(6) . . . 3_665 no
O8 Pb2 O2 Pb9 67.9(6) . . . 3_665 no
O11 Pb2 O2 Pb8 -169.5(6) . . . 1_545 no
O11 Pb2 O2 Pb8 67.8(9) . . . 3_665 no
O11 Pb2 O2 Pb9 -54.2(9) . . . 3_665 no
O10 Pb2 O2 Pb8 45.8(5) 2_645 . . 1_545 no
O10 Pb2 O2 Pb8 -76.9(6) 2_645 . . 3_665 no
O10 Pb2 O2 Pb9 161.1(6) 2_645 . . 3_665 no
O6 Pb2 O2 Pb8 -124.5(6) 3_665 . . 1_545 no
O6 Pb2 O2 Pb8 112.8(6) 3_665 . . 3_665 no
O6 Pb2 O2 Pb9 -9.2(5) 3_665 . . 3_665 no
O12 Pb2 O2 Pb8 167.1(7) 3_665 . . 1_545 no
O12 Pb2 O2 Pb8 44.4(6) 3_665 . . 3_665 no
O12 Pb2 O2 Pb9 -77.6(5) 3_665 . . 3_665 no
O2 Pb2 O8 Pb1 -94.7(5) . . . . no
O2 Pb2 O8 Pb6 92.0(7) . . . 2_645 no
O11 Pb2 O8 Pb1 49.5(6) . . . . no
O11 Pb2 O8 Pb6 -123.7(7) . . . 2_645 no
O10 Pb2 O8 Pb1 -160.4(5) 2_645 . . . no
O10 Pb2 O8 Pb6 26.4(8) 2_645 . . 2_645 no
O6 Pb2 O8 Pb1 -17.2(5) 3_665 . . . no
O6 Pb2 O8 Pb6 169.6(8) 3_665 . . 2_645 no
O12 Pb2 O8 Pb1 -28.9(10) 3_665 . . . no
O12 Pb2 O8 Pb6 157.9(7) 3_665 . . 2_645 no
O2 Pb2 O11 Cr1 -145.3(14) . . . . no
O2 Pb2 O11 Pb6 21.8(8) . . . 3_665 no
O8 Pb2 O11 Cr1 98.9(15) . . . . no
O8 Pb2 O11 Pb6 -94.0(5) . . . 3_665 no
O10 Pb2 O11 Cr1 -25.7(19) 2_645 . . . no
O10 Pb2 O11 Pb6 141.4(7) 2_645 . . 3_665 no
O6 Pb2 O11 Cr1 168.5(16) 3_665 . . . no
O6 Pb2 O11 Pb6 -24.5(4) 3_665 . . 3_665 no
O12 Pb2 O11 Cr1 -120.7(15) 3_665 . . . no
O12 Pb2 O11 Pb6 46.4(4) 3_665 . . 3_665 no
O2 Pb2 O10 Pb8 -32.3(4) . . 2_645 1_545 no
O2 Pb2 O10 Cr1 -157.1(11) . . 2_645 2_645 no
O8 Pb2 O10 Pb8 56.8(5) . . 2_645 1_545 no
O8 Pb2 O10 Cr1 -67.9(10) . . 2_645 2_645 no
O11 Pb2 O10 Pb8 -174.1(6) . . 2_645 1_545 no
O11 Pb2 O10 Cr1 61.2(13) . . 2_645 2_645 no
O2 Pb2 O6 Pb1 109.6(5) . . 3_665 . no
O2 Pb2 O6 Pb6 -115.9(6) . . 3_665 3_665 no
O2 Pb2 O6 Pb9 8.6(5) . . 3_665 3_665 no
O8 Pb2 O6 Pb1 16.3(5) . . 3_665 . no
O8 Pb2 O6 Pb6 150.8(6) . . 3_665 3_665 no
O8 Pb2 O6 Pb9 -84.7(5) . . 3_665 3_665 no
O11 Pb2 O6 Pb1 -99.0(5) . . 3_665 . no
O11 Pb2 O6 Pb6 35.5(5) . . 3_665 3_665 no
O11 Pb2 O6 Pb9 160.0(5) . . 3_665 3_665 no
O10 Pb2 O6 Pb1 95.1(8) 2_645 . 3_665 . no
O12 Pb2 O6 Pb1 -171.3(6) 3_665 . 3_665 . no
O2 Pb2 O12 Pb6 111.1(5) . . 3_665 3_665 no
O2 Pb2 O12 Cr1 -112.6(14) . . 3_665 3_665 no
O8 Pb2 O12 Pb6 40.5(9) . . 3_665 3_665 no
O8 Pb2 O12 Cr1 176.8(13) . . 3_665 3_665 no
O11 Pb2 O12 Pb6 -52.7(4) . . 3_665 3_665 no
O11 Pb2 O12 Cr1 83.6(14) . . 3_665 3_665 no
O7 Pb3 O3 Pb9 46.6(6) . . . 1_545 no
O7 Pb3 O3 Pb7 -68.7(5) . . . 3_665 no
O7 Pb3 O3 Pb8 175.0(6) . . . 3_665 no
O9 Pb3 O3 Pb9 -24.9(7) 2_645 . . 1_545 no
O9 Pb3 O3 Pb7 -140.2(5) 2_645 . . 3_665 no
O9 Pb3 O3 Pb8 103.5(6) 2_645 . . 3_665 no
O5 Pb3 O3 Pb9 123.9(6) 3_665 . . 1_545 no
O5 Pb3 O3 Pb7 8.7(5) 3_665 . . 3_665 no
O5 Pb3 O3 Pb8 -107.7(6) 3_665 . . 3_665 no
O3 Pb3 O7 Pb4 102.3(5) . . . . no
O3 Pb3 O7 Pb5 -87.7(7) . . . 2_645 no
O9 Pb3 O7 Pb4 -151.1(6) 2_645 . . . no
O9 Pb3 O7 Pb5 18.9(6) 2_645 . . 2_645 no
O5 Pb3 O7 Pb4 21.0(5) 3_665 . . . no
O5 Pb3 O7 Pb5 -169.0(7) 3_665 . . 2_645 no
O3 Pb3 O9 Pb5 72.6(5) . . 2_645 2_645 no
O3 Pb3 O9 Pb8 -141.8(4) . . 2_645 2_645 no
O3 Pb3 O9 Cr1 -33.9(10) . . 2_645 2_645 no
O7 Pb3 O9 Pb5 -13.0(4) . . 2_645 2_645 no
O7 Pb3 O9 Pb8 132.7(5) . . 2_645 2_645 no
O7 Pb3 O9 Cr1 -119.4(10) . . 2_645 2_645 no
O3 Pb3 O5 Pb4 -113.9(5) . . 3_665 . no
O3 Pb3 O5 Pb5 118.2(6) . . 3_665 3_665 no
O3 Pb3 O5 Pb7 -8.3(5) . . 3_665 3_665 no
O7 Pb3 O5 Pb4 -21.2(5) . . 3_665 . no
O7 Pb3 O5 Pb5 -149.2(6) . . 3_665 3_665 no
O7 Pb3 O5 Pb7 84.3(5) . . 3_665 3_665 no
O9 Pb3 O5 Pb4 -6.6(11) 2_645 . 3_665 . no
O7 Pb4 O4 Pb10 -41.1(5) . . . 1_545 no
O7 Pb4 O4 Pb7 69.3(5) . . . 3_665 no
O7 Pb4 O4 Pb10 -162.5(6) . . . 3_765 no
O5 Pb4 O4 Pb10 -119.9(5) 3_665 . . 1_545 no
O5 Pb4 O4 Pb7 -9.5(5) 3_665 . . 3_665 no
O5 Pb4 O4 Pb10 118.7(7) 3_665 . . 3_765 no
O4 Pb4 O7 Pb3 -97.3(5) . . . . no
O4 Pb4 O7 Pb5 96.7(11) . . . 2_645 no
O5 Pb4 O7 Pb3 -21.2(5) 3_665 . . . no
O5 Pb4 O7 Pb5 172.8(11) 3_665 . . 2_645 no
O4 Pb4 O5 Pb3 109.9(5) . . 3_665 . no
O4 Pb4 O5 Pb5 -121.7(6) . . 3_665 3_665 no
O4 Pb4 O5 Pb7 8.9(4) . . 3_665 3_665 no
O7 Pb4 O5 Pb3 21.2(5) . . 3_665 . no
O7 Pb4 O5 Pb5 149.6(6) . . 3_665 3_665 no
O7 Pb4 O5 Pb7 -79.9(5) . . 3_665 3_665 no
O9 Pb5 O5 Pb7 -63.7(5) . . . . no
O9 Pb5 O5 Pb3 53.6(5) . . . 3_665 no
O9 Pb5 O5 Pb4 171.8(6) . . . 3_665 no
O13 Pb5 O5 Pb7 104.3(5) . . . . no
O13 Pb5 O5 Pb3 -138.4(6) . . . 3_665 no
O13 Pb5 O5 Pb4 -20.2(6) . . . 3_665 no
O7 Pb5 O5 Pb7 11.7(6) 2_655 . . . no
O7 Pb5 O5 Pb3 128.9(6) 2_655 . . 3_665 no
O7 Pb5 O5 Pb4 -112.8(6) 2_655 . . 3_665 no
O15 Pb5 O5 Pb7 172.8(5) 3_665 . . . no
O15 Pb5 O5 Pb3 -70.0(5) 3_665 . . 3_665 no
O15 Pb5 O5 Pb4 48.3(5) 3_665 . . 3_665 no
O5 Pb5 O9 Pb8 19.4(9) . . . . no
O5 Pb5 O9 Cr1 -136.4(11) . . . . no
O5 Pb5 O9 Pb3 114.0(5) . . . 2_655 no
O13 Pb5 O9 Pb8 -10.7(17) . . . . no
O13 Pb5 O9 Cr1 -166.5(12) . . . . no
O13 Pb5 O9 Pb3 83.9(11) . . . 2_655 no
O7 Pb5 O9 Pb8 -81.2(9) 2_655 . . . no
O7 Pb5 O9 Cr1 123.1(11) 2_655 . . . no
O7 Pb5 O9 Pb3 13.5(4) 2_655 . . 2_655 no
O15 Pb5 O9 Pb8 78.4(10) 3_665 . . . no
O15 Pb5 O9 Cr1 -77.4(11) 3_665 . . . no
O15 Pb5 O9 Pb3 173.0(4) 3_665 . . 2_655 no
O5 Pb5 O13 Cr2 -84.7(15) . . . 1_455 no
O9 Pb5 O13 Cr2 -57(2) . . . 1_455 no
O7 Pb5 O13 Cr2 11.0(16) 2_655 . . 1_455 no
O15 Pb5 O13 Cr2 -155.6(15) 3_665 . . 1_455 no
O5 Pb5 O7 Pb3 -88.3(7) . . 2_655 2_655 no
O5 Pb5 O7 Pb4 75.7(11) . . 2_655 2_655 no
O9 Pb5 O7 Pb3 -19.8(6) . . 2_655 2_655 no
O9 Pb5 O7 Pb4 144.3(11) . . 2_655 2_655 no
O13 Pb5 O7 Pb3 -176.8(6) . . 2_655 2_655 no
O13 Pb5 O7 Pb4 -12.7(11) . . 2_655 2_655 no
O5 Pb5 O15 Pb6 103.1(4) . . 3_665 3_665 no
O5 Pb5 O15 Cr2 -128.2(12) . . 3_665 3_665 no
O9 Pb5 O15 Pb6 44.7(5) . . 3_665 3_665 no
O9 Pb5 O15 Cr2 173.4(12) . . 3_665 3_665 no
O13 Pb5 O15 Pb6 -161.6(5) . . 3_665 3_665 no
O13 Pb5 O15 Cr2 -32.9(12) . . 3_665 3_665 no
O12 Pb6 O6 Pb9 76.5(6) . . . . no
O12 Pb6 O6 Pb1 -159.1(7) . . . 3_665 no
O12 Pb6 O6 Pb2 -39.2(5) . . . 3_665 no
O15 Pb6 O6 Pb9 -109.9(5) . . . . no
O15 Pb6 O6 Pb1 14.5(7) . . . 3_665 no
O15 Pb6 O6 Pb2 134.4(5) . . . 3_665 no
O8 Pb6 O6 Pb9 -7.9(6) 2_655 . . . no
O8 Pb6 O6 Pb1 116.5(7) 2_655 . . 3_665 no
O8 Pb6 O6 Pb2 -123.6(6) 2_655 . . 3_665 no
O11 Pb6 O6 Pb9 150.7(6) 3_665 . . . no
O11 Pb6 O6 Pb1 -84.9(6) 3_665 . . 3_665 no
O11 Pb6 O6 Pb2 35.0(5) 3_665 . . 3_665 no
O6 Pb6 O12 Cr1 174.3(13) . . . . no
O6 Pb6 O12 Pb2 28.3(4) . . . 3_665 no
O8 Pb6 O12 Cr1 -89.3(12) 2_655 . . . no
O8 Pb6 O12 Pb2 124.8(5) 2_655 . . 3_665 no
O11 Pb6 O12 Cr1 95.2(12) 3_665 . . . no
O11 Pb6 O12 Pb2 -50.8(4) 3_665 . . 3_665 no
O6 Pb6 O15 Cr2 65.4(11) . . . . no
O6 Pb6 O15 Pb5 -74.0(4) . . . 3_665 no
O8 Pb6 O15 Cr2 -30.5(11) 2_655 . . . no
O8 Pb6 O15 Pb5 -170.0(5) 2_655 . . 3_665 no
O11 Pb6 O15 Cr2 140.2(10) 3_665 . . . no
O11 Pb6 O15 Pb5 0.8(5) 3_665 . . 3_665 no
O6 Pb6 O8 Pb1 -81.2(8) . . 2_655 2_655 no
O6 Pb6 O8 Pb2 90.2(7) . . 2_655 2_655 no
O12 Pb6 O8 Pb1 -153.5(8) . . 2_655 2_655 no
O12 Pb6 O8 Pb2 18.0(8) . . 2_655 2_655 no
O15 Pb6 O8 Pb1 13.7(9) . . 2_655 2_655 no
O15 Pb6 O8 Pb2 -174.9(6) . . 2_655 2_655 no
O6 Pb6 O11 Pb2 -25.6(4) . . 3_665 3_665 no
O6 Pb6 O11 Cr1 168.1(16) . . 3_665 3_665 no
O12 Pb6 O11 Pb2 51.1(4) . . 3_665 3_665 no
O12 Pb6 O11 Cr1 -115.1(16) . . 3_665 3_665 no
O15 Pb6 O11 Pb2 -116.8(4) . . 3_665 3_665 no
O15 Pb6 O11 Cr1 77.0(16) . . 3_665 3_665 no
O1 Pb7 O5 Pb5 177.7(5) 1_565 . . . no
O1 Pb7 O5 Pb3 50.0(6) 1_565 . . 3_665 no
O1 Pb7 O5 Pb4 -51.0(7) 1_565 . . 3_665 no
O14 Pb7 O5 Pb5 -91.3(8) 2_655 . . . no
O14 Pb7 O5 Pb3 141.0(7) 2_655 . . 3_665 no
O14 Pb7 O5 Pb4 39.9(9) 2_655 . . 3_665 no
O3 Pb7 O5 Pb5 119.9(5) 3_665 . . . no
O3 Pb7 O5 Pb3 -7.9(4) 3_665 . . 3_665 no
O3 Pb7 O5 Pb4 -108.9(5) 3_665 . . 3_665 no
O4 Pb7 O5 Pb5 -122.4(5) 3_665 . . . no
O4 Pb7 O5 Pb3 109.9(5) 3_665 . . 3_665 no
O4 Pb7 O5 Pb4 8.9(4) 3_665 . . 3_665 no
O5 Pb7 O1 Pb1 178.8(5) . . 1_565 1_565 no
O5 Pb7 O1 Pb9 -62.3(7) . . 1_565 3_675 no
O5 Pb7 O1 Pb10 49.9(7) . . 1_565 3_675 no
O5 Pb7 O14 Pb10 -5.2(8) . . 2_655 1_455 no
O5 Pb7 O14 Pb1 -142.2(7) . . 2_655 1_565 no
O5 Pb7 O14 Cr2 103.3(11) . . 2_655 2_655 no
O5 Pb7 O3 Pb8 -118.1(5) . . 3_665 . no
O5 Pb7 O3 Pb3 8.4(5) . . 3_665 3_665 no
O5 Pb7 O3 Pb9 134.5(5) . . 3_665 3_675 no
O1 Pb7 O3 Pb8 110.4(6) 1_565 . 3_665 . no
O14 Pb7 O3 Pb8 88.8(7) 2_655 . 3_665 . no
O4 Pb7 O3 Pb8 178.1(5) 3_665 . 3_665 . no
O5 Pb7 O4 Pb10 127.2(5) . . 3_665 1_455 no
O5 Pb7 O4 Pb4 -9.0(5) . . 3_665 3_665 no
O5 Pb7 O4 Pb10 -123.4(5) . . 3_665 3_675 no
O2 Pb8 O9 Pb5 -25.7(15) 1_565 . . . no
O2 Pb8 O9 Cr1 130.4(12) 1_565 . . . no
O2 Pb8 O9 Pb3 -117.2(9) 1_565 . . 2_655 no
O10 Pb8 O9 Pb5 135.8(9) 2_655 . . . no
O10 Pb8 O9 Cr1 -68.2(13) 2_655 . . . no
O10 Pb8 O9 Pb3 44.3(9) 2_655 . . 2_655 no
O2 Pb8 O9 Pb5 -123.9(9) 3_665 . . . no
O2 Pb8 O9 Cr1 32.1(11) 3_665 . . . no
O2 Pb8 O9 Pb3 144.6(5) 3_665 . . 2_655 no
O3 Pb8 O9 Pb5 -24.4(9) 3_665 . . . no
O3 Pb8 O9 Cr1 131.7(11) 3_665 . . . no
O3 Pb8 O9 Pb3 -115.9(5) 3_665 . . 2_655 no
O9 Pb8 O2 Pb2 120.7(8) . . 1_565 1_565 no
O9 Pb8 O2 Pb8 -108.5(9) . . 1_565 3_675 no
O9 Pb8 O2 Pb9 6.2(12) . . 1_565 3_675 no
O9 Pb8 O10 Pb2 -137.1(7) . . 2_655 1_565 no
O9 Pb8 O10 Cr1 -27.2(16) . . 2_655 2_655 no
O9 Pb8 O2 Pb9 -100.3(6) . . 3_665 . no
O9 Pb8 O2 Pb2 19.6(8) . . 3_665 3_665 no
O9 Pb8 O2 Pb8 147.0(5) . . 3_665 3_675 no
O2 Pb8 O2 Pb9 112.7(6) 1_565 . 3_665 . no
O10 Pb8 O2 Pb9 42.0(6) 2_655 . 3_665 . no
O3 Pb8 O2 Pb9 -175.0(5) 3_665 . 3_665 . no
O9 Pb8 O3 Pb7 67.4(5) . . 3_665 . no
O9 Pb8 O3 Pb3 -48.1(6) . . 3_665 3_665 no
O9 Pb8 O3 Pb9 176.0(5) . . 3_665 3_675 no
O2 Pb8 O3 Pb7 -113.3(6) 1_565 . 3_665 . no
O10 Pb8 O3 Pb7 -92.1(9) 2_655 . 3_665 . no
O2 Pb8 O3 Pb7 175.1(5) 3_665 . 3_665 . no
O3 Pb9 O6 Pb6 -171.7(5) 1_565 . . . no
O3 Pb9 O6 Pb1 51.3(7) 1_565 . . 3_665 no
O3 Pb9 O6 Pb2 -48.9(7) 1_565 . . 3_665 no
O1 Pb9 O6 Pb6 130.5(6) 3_665 . . . no
O1 Pb9 O6 Pb1 -6.5(5) 3_665 . . 3_665 no
O1 Pb9 O6 Pb2 -106.7(5) 3_665 . . 3_665 no
O2 Pb9 O6 Pb6 -114.1(6) 3_665 . . . no
O2 Pb9 O6 Pb1 108.8(5) 3_665 . . 3_665 no
O2 Pb9 O6 Pb2 8.7(5) 3_665 . . 3_665 no
O6 Pb9 O3 Pb3 -170.5(5) . . 1_565 1_565 no
O6 Pb9 O3 Pb7 -55.7(7) . . 1_565 3_675 no
O6 Pb9 O3 Pb8 53.6(7) . . 1_565 3_675 no
O6 Pb9 O1 Pb10 -119.5(5) . . 3_665 . no
O6 Pb9 O1 Pb1 7.0(5) . . 3_665 3_665 no
O6 Pb9 O1 Pb7 130.8(6) . . 3_665 3_675 no
O3 Pb9 O1 Pb10 106.6(5) 1_565 . 3_665 . no
O2 Pb9 O1 Pb10 172.0(5) 3_665 . 3_665 . no
O6 Pb9 O2 Pb8 119.6(6) . . 3_665 . no
O6 Pb9 O2 Pb2 -8.9(5) . . 3_665 3_665 no
O6 Pb9 O2 Pb8 -129.3(6) . . 3_665 3_675 no
O3 Pb9 O2 Pb8 -106.3(6) 1_565 . 3_665 . no
O1 Pb9 O2 Pb8 -171.8(5) 3_665 . 3_665 . no
O4 Pb10 O16 Cr2 151.5(19) 1_565 . . . no
O4 Pb10 O16 Pb1 -28.1(7) 1_565 . . 3_665 no
O14 Pb10 O16 Cr2 32(2) 2_755 . . . no
O14 Pb10 O16 Pb1 -147.5(5) 2_755 . . 3_665 no
O1 Pb10 O16 Cr2 -160(2) 3_665 . . . no
O1 Pb10 O16 Pb1 20.1(4) 3_665 . . 3_665 no
O4 Pb10 O16 Cr2 94(2) 3_765 . . . no
O4 Pb10 O16 Pb1 -85.3(4) 3_765 . . 3_665 no
O16 Pb10 O4 Pb4 168.6(5) . . 1_565 1_565 no
O16 Pb10 O4 Pb7 55.1(7) . . 1_565 3_675 no
O16 Pb10 O4 Pb10 -58.4(7) . . 1_565 3_775 no
O16 Pb10 O14 Pb7 37.2(7) . . 2_755 1_655 no
O16 Pb10 O14 Cr2 -71.2(11) . . 2_755 2_755 no
O16 Pb10 O1 Pb9 88.5(5) . . 3_665 . no
O16 Pb10 O1 Pb1 -30.5(5) . . 3_665 3_665 no
O16 Pb10 O1 Pb7 -157.0(5) . . 3_665 3_675 no
O4 Pb10 O1 Pb9 -122.5(6) 1_565 . 3_665 . no
O14 Pb10 O1 Pb9 -108.0(9) 2_755 . 3_665 . no
O4 Pb10 O1 Pb9 164.5(5) 3_765 . 3_665 . no
O16 Pb10 O4 Pb7 -106.7(5) . . 3_765 1_655 no
O16 Pb10 O4 Pb4 20.8(6) . . 3_765 3_765 no
O16 Pb10 O4 Pb10 144.4(5) . . 3_765 3_775 no
O10 Cr1 O9 Pb5 -91.9(11) . . . . no
O10 Cr1 O9 Pb8 101.9(10) . . . . no
O10 Cr1 O9 Pb3 -0.2(13) . . . 2_655 no
O11 Cr1 O9 Pb5 25.9(15) . . . . no
O11 Cr1 O9 Pb8 -140.3(11) . . . . no
O11 Cr1 O9 Pb3 117.7(12) . . . 2_655 no
O12 Cr1 O9 Pb5 153.1(11) . . . . no
O12 Cr1 O9 Pb8 -13.1(15) . . . . no
O12 Cr1 O9 Pb3 -115.2(12) . . . 2_655 no
O9 Cr1 O10 Pb8 174.4(9) . . . 2_645 no
O9 Cr1 O10 Pb2 -89.0(11) . . . 2_655 no
O11 Cr1 O10 Pb8 59.0(17) . . . 2_645 no
O11 Cr1 O10 Pb2 155.6(11) . . . 2_655 no
O12 Cr1 O10 Pb8 -71.0(15) . . . 2_645 no
O12 Cr1 O10 Pb2 25.6(14) . . . 2_655 no
O9 Cr1 O11 Pb2 -143.6(11) . . . . no
O9 Cr1 O11 Pb6 56(2) . . . 3_665 no
O10 Cr1 O11 Pb2 -34(2) . . . . no
O10 Cr1 O11 Pb6 166.4(10) . . . 3_665 no
O12 Cr1 O11 Pb2 93.2(18) . . . . no
O12 Cr1 O11 Pb6 -67(2) . . . 3_665 no
O9 Cr1 O12 Pb6 164.9(10) . . . . no
O9 Cr1 O12 Pb2 -69.1(18) . . . 3_665 no
O10 Cr1 O12 Pb6 56.0(15) . . . . no
O10 Cr1 O12 Pb2 -178.0(9) . . . 3_665 no
O11 Cr1 O12 Pb6 -72.0(17) . . . . no
O11 Cr1 O12 Pb2 54(2) . . . 3_665 no
O15 Cr2 O14 Pb7 10.0(14) . . . 2_645 no
O15 Cr2 O14 Pb1 -84.9(12) . . . 2_655 no
O15 Cr2 O14 Pb10 97.9(12) . . . 2_745 no
O16 Cr2 O14 Pb7 133.8(9) . . . 2_645 no
O16 Cr2 O14 Pb1 38.9(14) . . . 2_655 no
O16 Cr2 O14 Pb10 -138.4(9) . . . 2_745 no
O13 Cr2 O14 Pb7 -112.7(9) 1_655 . . 2_645 no
O13 Cr2 O14 Pb1 152.4(8) 1_655 . . 2_655 no
O13 Cr2 O14 Pb10 -24.8(12) 1_655 . . 2_745 no
O14 Cr2 O15 Pb6 70.1(13) . . . . no
O14 Cr2 O15 Pb5 -170.7(8) . . . 3_665 no
O16 Cr2 O15 Pb6 -51.8(15) . . . . no
O16 Cr2 O15 Pb5 67.4(16) . . . 3_665 no
O13 Cr2 O15 Pb6 -169.6(8) 1_655 . . . no
O13 Cr2 O15 Pb5 -50.4(17) 1_655 . . 3_665 no
O14 Cr2 O16 Pb10 33(3) . . . . no
O14 Cr2 O16 Pb1 -147.7(9) . . . 3_665 no
O15 Cr2 O16 Pb10 157.0(12) . . . . no
O15 Cr2 O16 Pb1 -23.5(16) . . . 3_665 no
O13 Cr2 O16 Pb10 -82(2) 1_655 . . . no
O13 Cr2 O16 Pb1 97.7(11) 1_655 . . 3_665 no
O14 Cr2 O13 Pb5 -44.1(19) . . 1_655 1_655 no
O15 Cr2 O13 Pb5 -167.4(9) . . 1_655 1_655 no
O16 Cr2 O13 Pb5 71.2(19) . . 1_655 1_655 no
