#------------------------------------------------------------------------------
#$Date: 2015-01-27 21:58:39 +0200 (Tue, 27 Jan 2015) $
#$Revision: 130149 $
#$URL: svn://www.crystallography.net/cod/cif/4/00/03/4000398.cif $
#------------------------------------------------------------------------------
#
# This file is available in the Crystallography Open Database (COD),
# http://www.crystallography.net/
#
# All data on this site have been placed in the public domain by the
# contributors.
#
data_4000398
_journal_name_full               'Chemistry of Materials'
_journal_paper_doi               10.1021/cm049831k
_journal_year                    2004
_chemical_formula_sum            'Ba3 Mg Nb2 O9'
_chemical_formula_weight         766.13
_space_group_IT_number           164
_symmetry_cell_setting           trigonal
_symmetry_space_group_name_Hall  '-P 3 2"'
_symmetry_space_group_name_H-M   'P -3 m 1'
_cell_angle_alpha                90.0
_cell_angle_beta                 90.0
_cell_angle_gamma                120.0
_cell_formula_units_Z            1
_cell_length_a                   5.77544(5)
_cell_length_b                   5.77544
_cell_length_c                   7.08762(10)
_cell_volume                     204.7393
_cod_database_code               4000398
loop_
_symmetry_equiv_pos_site_id
_symmetry_equiv_pos_as_xyz
1 +x,+y,+z
2 -y,x-y,+z
3 y-x,-x,+z
4 y-x,+y,+z
5 -y,-x,+z
6 +x,x-y,+z
-1 -x,-y,-z
-2 +y,y-x,-z
-3 x-y,+x,-z
-4 x-y,-y,-z
-5 +y,+x,-z
-6 -x,y-x,-z
loop_
_atom_site_type_symbol
_atom_site_label
_atom_site_fract_x
_atom_site_fract_y
_atom_site_fract_z
_atom_site_occupancy
_atom_site_thermal_displace_type
_atom_site_U_iso_or_equiv
_atom_site_symmetry_multiplicity
BA BA2 0.33333 0.66667 0.66814(34) 1.0 Uiso 0.0071(4) 2
BA BA1 0.0 0.0 0.0 1.0 Uiso 0.0069(7) 1
MG MG1 0.0 0.0 0.5 1.0 Uiso 0.0089(8) 1
NB NB1 0.33333 0.66667 0.17921(28) 1.0 Uiso 0.00229(24) 2
O O1 0.5 0.0 0.0 1.0 Uiso 0.00838(34) 3
O O2 0.17061(15) 0.34122(30) 0.32570(20) 1.0 Uiso 0.00910(20) 6
