#------------------------------------------------------------------------------
#$Date: 2016-02-16 22:30:59 +0200 (Tue, 16 Feb 2016) $
#$Revision: 176467 $
#$URL: svn://www.crystallography.net/cod/cif/4/00/05/4000563.cif $
#------------------------------------------------------------------------------
#
# This file is available in the Crystallography Open Database (COD),
# http://www.crystallography.net/
#
# All data on this site have been placed in the public domain by the
# contributors.
#
data_4000563
_journal_name_full               'Chemistry of Materials'
_journal_year                    2005
_chemical_formula_sum            'Cd1.3 Li0.4 O4 V'
_chemical_formula_weight         263.8
_space_group_ssg_name            Xmcm(00\g)000
_symmetry_cell_setting           orthorhombic
_symmetry_space_group_name_H-M   Xmcm(00\g)000
_cell_angle_alpha                90
_cell_angle_beta                 90
_cell_angle_gamma                90
_cell_formula_units_Z            4
_cell_length_a                   5.8640(5)
_cell_length_b                   9.0240(10)
_cell_length_c                   6.7515(6)
_cell_measurement_temperature    293
_cell_modulation_dimension       1
_cell_volume                     357.27(6)
_exptl_crystal_density_diffrn    4.9037(8)
_cod_original_formula_sum        'Cd1.3 Li0.4 O4 V1'
_cod_database_code               4000563
loop_
_space_group_symop_ssg_id
_space_group_symop_ssg_operation_algebraic
1 x1,x2,x3,x4
2 -x1,x2,x3,x4
3 x1,-x2,1/2+x3,x4
4 -x1,-x2,1/2+x3,x4
5 -x1,-x2,-x3,-x4
6 x1,-x2,-x3,-x4
7 -x1,x2,1/2-x3,-x4
8 x1,x2,1/2-x3,-x4
9 1/2+x1,1/2+x2,x3,1/2+x4
10 1/2-x1,1/2+x2,x3,1/2+x4
11 1/2+x1,1/2-x2,1/2+x3,1/2+x4
12 1/2-x1,1/2-x2,1/2+x3,1/2+x4
13 1/2-x1,1/2-x2,-x3,1/2-x4
14 1/2+x1,1/2-x2,-x3,1/2-x4
15 1/2-x1,1/2+x2,1/2-x3,1/2-x4
16 1/2+x1,1/2+x2,1/2-x3,1/2-x4
loop_
_atom_site_label
_atom_site_type_symbol
_atom_site_fract_x
_atom_site_fract_y
_atom_site_fract_z
_atom_site_adp_type
_atom_site_U_iso_or_equiv
_atom_site_symmetry_multiplicity
_atom_site_occupancy
_atom_site_calc_flag
_atom_site_refinement_flags
_atom_site_disorder_assembly
_atom_site_disorder_group
Cd1 Cd 0 0 0.5 Uani 0.0098(4) 4 1 d . . .
Cd2 Cd 0 0.3115(6) 0.75 Uani 0.0309(12) 4 0.3 d . . .
Li2 Li 0 0.321(9) 0.75 Uiso 0.0804 4 0.4 d . . .
V1 V 0 0.64205(9) 0.75 Uani 0.0050(6) 4 1 d . . .
O1 O 0.2600(5) 0.0273(3) 0.75 Uani 0.0128(6) 8 1 d . . .
O2 O 0 0.2505(4) 0.4541(6) Uani 0.0216(7) 8 1 d . . .
loop_
_cell_wave_vector_seq_id
_cell_wave_vector_x
_cell_wave_vector_y
_cell_wave_vector_z
1 0.00000 0.00000 0.72200
