#------------------------------------------------------------------------------
#$Date: 2016-02-14 06:40:26 +0200 (Sun, 14 Feb 2016) $
#$Revision: 176432 $
#$URL: svn://www.crystallography.net/cod/cif/4/00/17/4001769.cif $
#------------------------------------------------------------------------------
#
# This file is available in the Crystallography Open Database (COD),
# http://www.crystallography.net/
#
# All data on this site have been placed in the public domain by the
# contributors.
#
data_4001769
loop_
_publ_author_name
'Allix, Mathieu'
'Chenu, S\'ebastien'
'V\'eron, Emmanuel'
'Poumeyrol, Thomas'
'Kouadri-Boudjelthia, El Amin'
'Alahrach\'e, Salaheddine'
'Porcher, Florence'
'Massiot, Dominique'
'Fayon, Franck'
_publ_section_title
;
 Considerable Improvement of Long-Persistent Luminescence in Germanium and
 Tin Substituted ZnGa2O4
;
_journal_issue                   9
_journal_name_full               'Chemistry of Materials'
_journal_page_first              1600
_journal_paper_doi               10.1021/cm304101n
_journal_volume                  25
_journal_year                    2013
_chemical_formula_sum            'Ga1.5 Ge0.25 O4 Zn1.25'
_chemical_formula_weight         268.4
_chemical_name_systematic        ' ?'
_space_group_IT_number           227
_symmetry_cell_setting           cubic
_symmetry_Int_Tables_number      227
_symmetry_space_group_name_Hall  '-F 4vw 2vw 3'
_symmetry_space_group_name_H-M   'F d -3 m :2'
_cell_angle_alpha                90
_cell_angle_beta                 90
_cell_angle_gamma                90
_cell_formula_units_Z            8
_cell_length_a                   8.34115(4)
_cell_length_b                   8.34115(4)
_cell_length_c                   8.34115(4)
_cell_measurement_temperature    293
_cell_volume                     580.334(5)
_diffrn_ambient_temperature      293
_diffrn_radiation_probe          neutron
_diffrn_radiation_wavelength     1.2252
_exptl_absorpt_coefficient_mu    0.006
_exptl_crystal_density_diffrn    6.143
_exptl_crystal_F_000             992
_pd_instr_location               ' ?'
_pd_meas_2theta_range_inc        0.05
_pd_meas_2theta_range_max        121.050
_pd_meas_2theta_range_min        4.500
_pd_meas_number_of_points        2332
_pd_proc_2theta_range_inc        0.05
_pd_proc_2theta_range_max        121.05
_pd_proc_2theta_range_min        4.5
_pd_proc_ls_background_function  '9 Legendre polynoms'
_pd_proc_ls_pref_orient_corr     none
_pd_proc_ls_profile_function     Pseudo-Voigt
_pd_proc_ls_prof_R_factor        0.0244
_pd_proc_ls_prof_wR_expected     0.0133
_pd_proc_ls_prof_wR_factor       0.0310
_refine_ls_goodness_of_fit_all   2.33
_refine_ls_number_constraints    0
_refine_ls_number_parameters     24
_refine_ls_number_restraints     0
_refine_ls_R_factor_all          0.0101
_refine_ls_R_factor_gt           0.0101
_refine_ls_shift/su_max          0.0742
_refine_ls_shift/su_mean         0.0051
_refine_ls_weighting_scheme      sigma
_refine_ls_wR_factor_all         0.0189
_refine_ls_wR_factor_gt          0.0189
_cod_data_source_file            cm304101n_si_003.cif
_cod_data_source_block           I
_cod_original_sg_symbol_Hall     '-F 4abvw;2abvw;3'
_cod_original_sg_symbol_H-M      'F d -3 m'
_cod_database_code               4001769
loop_
_symmetry_equiv_pos_site_id
_symmetry_equiv_pos_as_xyz
1 x,y,z
2 -x+3/4,-y+1/4,z+1/2
3 -x+1/4,y+1/2,-z+3/4
4 x+1/2,-y+3/4,-z+1/4
5 z,x,y
6 z+1/2,-x+3/4,-y+1/4
7 -z+3/4,-x+1/4,y+1/2
8 -z+1/4,x+1/2,-y+3/4
9 y,z,x
10 -y+1/4,z+1/2,-x+3/4
11 y+1/2,-z+3/4,-x+1/4
12 -y+3/4,-z+1/4,x+1/2
13 y+3/4,x+1/4,-z+1/2
14 -y,-x,-z
15 y+1/4,-x+1/2,z+3/4
16 -y+1/2,x+3/4,z+1/4
17 x+3/4,z+1/4,-y+1/2
18 -x+1/2,z+3/4,y+1/4
19 -x,-z,-y
20 x+1/4,-z+1/2,y+3/4
21 z+3/4,y+1/4,-x+1/2
22 z+1/4,-y+1/2,x+3/4
23 -z+1/2,y+3/4,x+1/4
24 -z,-y,-x
25 -x,-y,-z
26 x+1/4,y+3/4,-z+1/2
27 x+3/4,-y+1/2,z+1/4
28 -x+1/2,y+1/4,z+3/4
29 -z,-x,-y
30 -z+1/2,x+1/4,y+3/4
31 z+1/4,x+3/4,-y+1/2
32 z+3/4,-x+1/2,y+1/4
33 -y,-z,-x
34 y+3/4,-z+1/2,x+1/4
35 -y+1/2,z+1/4,x+3/4
36 y+1/4,z+3/4,-x+1/2
37 -y+1/4,-x+3/4,z+1/2
38 y,x,z
39 -y+3/4,x+1/2,-z+1/4
40 y+1/2,-x+1/4,-z+3/4
41 -x+1/4,-z+3/4,y+1/2
42 x+1/2,-z+1/4,-y+3/4
43 x,z,y
44 -x+3/4,z+1/2,-y+1/4
45 -z+1/4,-y+3/4,x+1/2
46 -z+3/4,y+1/2,-x+1/4
47 z+1/2,-y+1/4,-x+3/4
48 z,y,x
49 x,y+1/2,z+1/2
50 -x+3/4,-y+3/4,z
51 -x+1/4,y,-z+1/4
52 x+1/2,-y+1/4,-z+3/4
53 z,x+1/2,y+1/2
54 z+1/2,-x+1/4,-y+3/4
55 -z+3/4,-x+3/4,y
56 -z+1/4,x,-y+1/4
57 y,z+1/2,x+1/2
58 -y+1/4,z,-x+1/4
59 y+1/2,-z+1/4,-x+3/4
60 -y+3/4,-z+3/4,x
61 y+3/4,x+3/4,-z
62 -y,-x+1/2,-z+1/2
63 y+1/4,-x,z+1/4
64 -y+1/2,x+1/4,z+3/4
65 x+3/4,z+3/4,-y
66 -x+1/2,z+1/4,y+3/4
67 -x,-z+1/2,-y+1/2
68 x+1/4,-z,y+1/4
69 z+3/4,y+3/4,-x
70 z+1/4,-y,x+1/4
71 -z+1/2,y+1/4,x+3/4
72 -z,-y+1/2,-x+1/2
73 -x,-y+1/2,-z+1/2
74 x+1/4,y+1/4,-z
75 x+3/4,-y,z+3/4
76 -x+1/2,y+3/4,z+1/4
77 -z,-x+1/2,-y+1/2
78 -z+1/2,x+3/4,y+1/4
79 z+1/4,x+1/4,-y
80 z+3/4,-x,y+3/4
81 -y,-z+1/2,-x+1/2
82 y+3/4,-z,x+3/4
83 -y+1/2,z+3/4,x+1/4
84 y+1/4,z+1/4,-x
85 -y+1/4,-x+1/4,z
86 y,x+1/2,z+1/2
87 -y+3/4,x,-z+3/4
88 y+1/2,-x+3/4,-z+1/4
89 -x+1/4,-z+1/4,y
90 x+1/2,-z+3/4,-y+1/4
91 x,z+1/2,y+1/2
92 -x+3/4,z,-y+3/4
93 -z+1/4,-y+1/4,x
94 -z+3/4,y,-x+3/4
95 z+1/2,-y+3/4,-x+1/4
96 z,y+1/2,x+1/2
97 x+1/2,y,z+1/2
98 -x+1/4,-y+1/4,z
99 -x+3/4,y+1/2,-z+1/4
100 x,-y+3/4,-z+3/4
101 z+1/2,x,y+1/2
102 z,-x+3/4,-y+3/4
103 -z+1/4,-x+1/4,y
104 -z+3/4,x+1/2,-y+1/4
105 y+1/2,z,x+1/2
106 -y+3/4,z+1/2,-x+1/4
107 y,-z+3/4,-x+3/4
108 -y+1/4,-z+1/4,x
109 y+1/4,x+1/4,-z
110 -y+1/2,-x,-z+1/2
111 y+3/4,-x+1/2,z+1/4
112 -y,x+3/4,z+3/4
113 x+1/4,z+1/4,-y
114 -x,z+3/4,y+3/4
115 -x+1/2,-z,-y+1/2
116 x+3/4,-z+1/2,y+1/4
117 z+1/4,y+1/4,-x
118 z+3/4,-y+1/2,x+1/4
119 -z,y+3/4,x+3/4
120 -z+1/2,-y,-x+1/2
121 -x+1/2,-y,-z+1/2
122 x+3/4,y+3/4,-z
123 x+1/4,-y+1/2,z+3/4
124 -x,y+1/4,z+1/4
125 -z+1/2,-x,-y+1/2
126 -z,x+1/4,y+1/4
127 z+3/4,x+3/4,-y
128 z+1/4,-x+1/2,y+3/4
129 -y+1/2,-z,-x+1/2
130 y+1/4,-z+1/2,x+3/4
131 -y,z+1/4,x+1/4
132 y+3/4,z+3/4,-x
133 -y+3/4,-x+3/4,z
134 y+1/2,x,z+1/2
135 -y+1/4,x+1/2,-z+3/4
136 y,-x+1/4,-z+1/4
137 -x+3/4,-z+3/4,y
138 x,-z+1/4,-y+1/4
139 x+1/2,z,y+1/2
140 -x+1/4,z+1/2,-y+3/4
141 -z+3/4,-y+3/4,x
142 -z+1/4,y+1/2,-x+3/4
143 z,-y+1/4,-x+1/4
144 z+1/2,y,x+1/2
145 x+1/2,y+1/2,z
146 -x+1/4,-y+3/4,z+1/2
147 -x+3/4,y,-z+3/4
148 x,-y+1/4,-z+1/4
149 z+1/2,x+1/2,y
150 z,-x+1/4,-y+1/4
151 -z+1/4,-x+3/4,y+1/2
152 -z+3/4,x,-y+3/4
153 y+1/2,z+1/2,x
154 -y+3/4,z,-x+3/4
155 y,-z+1/4,-x+1/4
156 -y+1/4,-z+3/4,x+1/2
157 y+1/4,x+3/4,-z+1/2
158 -y+1/2,-x+1/2,-z
159 y+3/4,-x,z+3/4
160 -y,x+1/4,z+1/4
161 x+1/4,z+3/4,-y+1/2
162 -x,z+1/4,y+1/4
163 -x+1/2,-z+1/2,-y
164 x+3/4,-z,y+3/4
165 z+1/4,y+3/4,-x+1/2
166 z+3/4,-y,x+3/4
167 -z,y+1/4,x+1/4
168 -z+1/2,-y+1/2,-x
169 -x+1/2,-y+1/2,-z
170 x+3/4,y+1/4,-z+1/2
171 x+1/4,-y,z+1/4
172 -x,y+3/4,z+3/4
173 -z+1/2,-x+1/2,-y
174 -z,x+3/4,y+3/4
175 z+3/4,x+1/4,-y+1/2
176 z+1/4,-x,y+1/4
177 -y+1/2,-z+1/2,-x
178 y+1/4,-z,x+1/4
179 -y,z+3/4,x+3/4
180 y+3/4,z+1/4,-x+1/2
181 -y+3/4,-x+1/4,z+1/2
182 y+1/2,x+1/2,z
183 -y+1/4,x,-z+1/4
184 y,-x+3/4,-z+3/4
185 -x+3/4,-z+1/4,y+1/2
186 x,-z+3/4,-y+3/4
187 x+1/2,z+1/2,y
188 -x+1/4,z,-y+1/4
189 -z+3/4,-y+1/4,x+1/2
190 -z+1/4,y,-x+1/4
191 z,-y+3/4,-x+3/4
192 z+1/2,y+1/2,x
loop_
_atom_site_label
_atom_site_type_symbol
_atom_site_fract_x
_atom_site_fract_y
_atom_site_fract_z
_atom_site_adp_type
_atom_site_U_iso_or_equiv
_atom_site_symmetry_multiplicity
_atom_site_occupancy
_atom_site_calc_flag
Zn1 Zn 0.125 0.125 0.125 Uani 0.00407(10) 8 0.938(5) d
Ga1 Ga 0.125 0.125 0.125 Uani 0.00407(10) 8 0.0495 d
Ge1 Ge 0.125 0.125 0.125 Uani 0.00407(10) 8 0.013(5) d
Zn2 Zn 0.5 0.5 0.5 Uani 0.00265(6) 16 0.156(2) d
Ga2 Ga 0.5 0.5 0.5 Uani 0.00265(6) 16 0.7252 d
Ge2 Ge 0.5 0.5 0.5 Uani 0.00265(6) 16 0.119(2) d
O O 0.26171(2) 0.26171(2) 0.26171(2) Uani 0.00604(5) 32 1 d
loop_
_atom_site_aniso_label
_atom_site_aniso_type_symbol
_atom_site_aniso_U_11
_atom_site_aniso_U_22
_atom_site_aniso_U_33
_atom_site_aniso_U_12
_atom_site_aniso_U_13
_atom_site_aniso_U_23
Zn1 Zn 0.00407(17) 0.00407(17) 0.00407(17) 0 0 0
Ga1 Ga 0.00407(17) 0.00407(17) 0.00407(17) 0 0 0
Ge1 Ge 0.00407(17) 0.00407(17) 0.00407(17) 0 0 0
Zn2 Zn 0.00265(11) 0.00265(11) 0.00265(11) -0.00071(8) -0.00071(8) -0.00071(8)
Ga2 Ga 0.00265(11) 0.00265(11) 0.00265(11) -0.00071(8) -0.00071(8) -0.00071(8)
Ge2 Ge 0.00265(11) 0.00265(11) 0.00265(11) -0.00071(8) -0.00071(8) -0.00071(8)
O O 0.00604(9) 0.00604(9) 0.00604(9) -0.00108(8) -0.00108(8) -0.00108(8)
loop_
_atom_type_symbol
_atom_type_scat_length_neutron
_atom_type_scat_source
Zn 5.680 International_Tables_Vol_C
Ga 7.288 International_Tables_Vol_C
Ge 8.185 International_Tables_Vol_C
O 5.803 International_Tables_Vol_C
loop_
_pd_proc_point_id
_pd_proc_2theta_corrected
_pd_proc_intensity_net
_pd_calc_intensity_net
_pd_proc_ls_weight
1 4.5100 887.00 885.56 15.00
2 4.5600 890.00 880.35 13.00
3 4.6100 875.00 875.29 13.00
4 4.6600 868.00 870.35 13.00
5 4.7100 892.00 865.53 13.00
6 4.7600 867.00 860.84 13.00
7 4.8100 859.00 856.26 13.00
8 4.8600 859.00 851.79 13.00
9 4.9100 847.00 847.43 13.00
10 4.9600 843.00 843.17 13.00
11 5.0100 865.00 839.02 13.00
12 5.0600 824.00 834.96 13.00
13 5.1100 819.00 831.00 13.00
14 5.1600 832.00 827.13 13.00
15 5.2100 818.00 823.35 13.00
16 5.2600 824.00 819.66 13.00
17 5.3100 815.00 816.04 13.00
18 5.3600 794.00 812.51 13.00
19 5.4100 809.00 809.06 13.00
20 5.4600 811.00 805.69 13.00
21 5.5100 779.00 802.38 12.00
22 5.5600 787.00 799.15 13.00
23 5.6100 789.00 795.99 13.00
24 5.6600 793.00 792.90 13.00
25 5.7100 780.00 789.87 12.00
26 5.7600 772.00 786.91 12.00
27 5.8100 795.00 784.00 13.00
28 5.8600 764.00 781.16 12.00
29 5.9100 779.00 778.38 12.00
30 5.9600 760.00 775.65 14.00
31 6.0100 778.00 772.97 14.00
32 6.0600 768.00 770.35 14.00
33 6.1100 777.00 767.78 14.00
34 6.1600 756.00 765.27 14.00
35 6.2100 792.00 762.80 14.00
36 6.2600 765.00 760.38 14.00
37 6.3100 746.00 758.01 14.00
38 6.3600 783.00 755.68 14.00
39 6.4100 764.00 753.39 14.00
40 6.4600 774.00 751.15 14.00
41 6.5100 768.00 748.95 14.00
42 6.5600 751.00 746.79 14.00
43 6.6100 747.00 744.67 14.00
44 6.6600 729.00 742.59 13.00
45 6.7100 766.00 740.54 14.00
46 6.7600 718.00 738.54 13.00
47 6.8100 754.00 736.57 14.00
48 6.8600 744.00 734.63 14.00
49 6.9100 760.00 732.72 14.00
50 6.9600 741.00 730.85 12.00
51 7.0100 743.00 729.02 12.00
52 7.0600 734.00 727.21 12.00
53 7.1100 753.00 725.43 12.00
54 7.1600 738.00 723.69 12.00
55 7.2100 724.00 721.97 12.00
56 7.2600 710.00 720.28 12.00
57 7.3100 714.00 718.62 12.00
58 7.3600 708.00 716.99 12.00
59 7.4100 704.00 715.38 12.00
60 7.4600 727.00 713.80 12.00
61 7.5100 714.00 712.24 12.00
62 7.5600 708.00 710.71 12.00
63 7.6100 703.00 709.20 12.00
64 7.6600 721.00 707.72 12.00
65 7.7100 719.00 706.25 12.00
66 7.7600 693.00 704.81 12.00
67 7.8100 679.00 703.40 12.00
68 7.8600 704.00 702.00 12.00
69 7.9100 704.00 700.62 12.00
70 7.9600 699.00 699.27 12.00
71 8.0100 692.00 697.93 12.00
72 8.0600 705.00 696.62 12.00
73 8.1100 681.00 695.32 12.00
74 8.1600 675.00 694.04 12.00
75 8.2100 653.00 692.78 11.00
76 8.2600 676.00 691.54 12.00
77 8.3100 690.00 690.31 12.00
78 8.3600 678.00 689.11 13.00
79 8.4100 679.00 687.91 13.00
80 8.4600 685.00 686.74 13.00
81 8.5100 669.00 685.58 13.00
82 8.5600 694.00 684.44 13.00
83 8.6100 682.00 683.31 13.00
84 8.6600 696.00 682.19 13.00
85 8.7100 662.00 681.09 13.00
86 8.7600 690.00 680.01 13.00
87 8.8100 664.00 678.94 13.00
88 8.8600 699.00 677.88 13.00
89 8.9100 669.00 676.84 13.00
90 8.9600 676.00 675.81 13.00
91 9.0100 662.00 674.79 13.00
92 9.0600 642.00 673.78 13.00
93 9.1100 658.00 672.79 13.00
94 9.1600 667.00 671.81 13.00
95 9.2100 663.00 670.84 13.00
96 9.2600 692.00 669.88 13.00
97 9.3100 671.00 668.94 13.00
98 9.3600 689.00 668.00 12.00
99 9.4100 683.00 667.08 12.00
100 9.4600 656.00 666.16 11.00
101 9.5100 672.00 665.26 12.00
102 9.5600 675.00 664.37 12.00
103 9.6100 652.00 663.48 11.00
104 9.6600 687.00 662.61 12.00
105 9.7100 653.00 661.75 11.00
106 9.7600 670.00 660.89 12.00
107 9.8100 658.00 660.05 11.00
108 9.8600 672.00 659.21 12.00
109 9.9100 669.00 658.39 12.00
110 9.9600 651.00 657.57 11.00
111 10.0100 650.00 656.76 11.00
112 10.0600 672.00 655.96 12.00
113 10.1100 641.00 655.17 11.00
114 10.1600 649.00 654.38 11.00
115 10.2100 647.00 653.61 11.00
116 10.2600 629.00 652.84 11.00
117 10.3100 672.00 652.08 12.00
118 10.3600 651.00 651.32 11.00
119 10.4100 638.00 650.58 11.00
120 10.4600 652.00 649.84 11.00
121 10.5100 640.00 649.11 11.00
122 10.5600 641.00 648.38 11.00
123 10.6100 636.00 647.67 11.00
124 10.6600 628.00 646.96 11.00
125 10.7100 643.00 646.25 11.00
126 10.7600 639.00 645.55 13.00
127 10.8100 637.00 644.86 13.00
128 10.8600 627.00 644.18 12.00
129 10.9100 654.00 643.50 13.00
130 10.9600 657.00 642.83 13.00
131 11.0100 631.00 642.16 13.00
132 11.0600 633.00 641.50 13.00
133 11.1100 617.00 640.85 12.00
134 11.1600 651.00 640.20 13.00
135 11.2100 630.00 639.56 13.00
136 11.2600 637.00 638.92 13.00
137 11.3100 632.00 638.29 13.00
138 11.3600 637.00 637.66 13.00
139 11.4100 648.00 637.04 13.00
140 11.4600 624.00 636.42 12.00
141 11.5100 616.00 636.79 12.00
142 11.5600 646.00 636.22 13.00
143 11.6100 642.00 635.65 13.00
144 11.6600 623.00 635.10 12.00
145 11.7100 637.00 634.54 13.00
146 11.7600 626.00 634.00 11.00
147 11.8100 664.00 633.46 11.00
148 11.8600 653.00 632.93 11.00
149 11.9100 622.00 632.41 11.00
150 11.9600 611.00 631.89 11.00
151 12.0100 639.00 631.38 11.00
152 12.0600 634.00 630.88 11.00
153 12.1100 640.00 630.39 11.00
154 12.1600 620.00 629.91 11.00
155 12.2100 616.00 629.43 11.00
156 12.2600 621.00 628.97 11.00
157 12.3100 635.00 628.51 11.00
158 12.3600 630.00 628.07 11.00
159 12.4100 607.00 627.63 11.00
160 12.4600 612.00 627.21 11.00
161 12.5100 622.00 626.79 11.00
162 12.5600 629.00 626.40 11.00
163 12.6100 612.00 626.01 11.00
164 12.6600 625.00 625.64 11.00
165 12.7100 619.00 625.28 11.00
166 12.7600 623.00 624.95 11.00
167 12.8100 602.00 624.63 11.00
168 12.8600 605.00 624.34 11.00
169 12.9100 607.00 624.07 11.00
170 12.9600 609.00 623.82 11.00
171 13.0100 610.00 623.61 11.00
172 13.0600 610.00 623.43 11.00
173 13.1100 623.00 623.29 11.00
174 13.1600 597.00 623.20 12.00
175 13.2100 609.00 623.16 12.00
176 13.2600 637.00 623.21 13.00
177 13.3100 602.00 623.38 12.00
178 13.3600 624.00 623.74 12.00
179 13.4100 615.00 624.47 12.00
180 13.4600 625.00 625.84 12.00
181 13.5100 612.00 628.38 12.00
182 13.5600 646.00 632.87 13.00
183 13.6100 642.00 640.43 13.00
184 13.6600 659.00 652.51 13.00
185 13.7100 704.00 670.79 13.00
186 13.7600 711.00 697.01 13.00
187 13.8100 758.00 732.82 14.00
188 13.8600 787.00 779.65 14.00
189 13.9100 850.00 838.80 15.00
190 13.9600 909.00 911.76 15.00
191 14.0100 997.00 1000.65 16.00
192 14.0600 1077.00 1108.85 16.00
193 14.1100 1258.00 1241.54 18.00
194 14.1600 1417.00 1405.73 17.00
195 14.2100 1656.00 1609.32 18.00
196 14.2600 1908.00 1858.23 20.00
197 14.3100 2218.00 2151.49 21.00
198 14.3600 2558.00 2475.15 23.00
199 14.4100 2901.00 2797.70 24.00
200 14.4600 3201.00 3070.91 25.00
201 14.5100 3325.00 3238.50 26.00
202 14.5600 3321.00 3252.34 26.00
203 14.6100 3160.00 3091.48 25.00
204 14.6600 2810.00 2775.83 24.00
205 14.7100 2433.00 2362.46 22.00
206 14.7600 1986.00 1923.61 20.00
207 14.8100 1550.00 1522.25 18.00
208 14.8600 1210.00 1197.60 16.00
209 14.9100 910.00 962.25 13.00
210 14.9600 765.00 807.98 12.00
211 15.0100 661.00 715.84 11.00
212 15.0600 625.00 665.18 11.00
213 15.1100 631.00 639.07 11.00
214 15.1600 621.00 626.03 11.00
215 15.2100 625.00 619.34 11.00
216 15.2600 611.00 615.53 11.00
217 15.3100 596.00 613.00 11.00
218 15.3600 585.00 611.08 11.00
219 15.4100 606.00 609.47 11.00
220 15.4600 580.00 608.08 11.00
221 15.5100 610.00 606.85 12.00
222 15.5600 607.00 605.73 12.00
223 15.6100 611.00 604.72 12.00
224 15.6600 594.00 603.79 12.00
225 15.7100 606.00 602.93 12.00
226 15.7600 621.00 602.14 12.00
227 15.8100 613.00 601.39 12.00
228 15.8600 588.00 600.69 12.00
229 15.9100 605.00 600.03 12.00
230 15.9600 600.00 599.40 12.00
231 16.0100 593.00 598.81 12.00
232 16.0600 615.00 598.23 12.00
233 16.1100 607.00 597.68 12.00
234 16.1600 605.00 597.16 12.00
235 16.2100 600.00 596.65 12.00
236 16.2600 613.00 596.16 12.00
237 16.3100 593.00 595.68 12.00
238 16.3600 607.00 595.21 12.00
239 16.4100 608.00 594.76 12.00
240 16.4600 608.00 594.32 12.00
241 16.5100 600.00 593.89 12.00
242 16.5600 621.00 593.47 11.00
243 16.6100 602.00 593.06 11.00
244 16.6600 603.00 592.66 11.00
245 16.7100 595.00 592.26 11.00
246 16.7600 591.00 591.87 11.00
247 16.8100 603.00 591.49 11.00
248 16.8600 593.00 591.11 11.00
249 16.9100 615.00 590.74 11.00
250 16.9600 606.00 590.38 11.00
251 17.0100 599.00 590.02 11.00
252 17.0600 600.00 589.67 11.00
253 17.1100 606.00 589.32 11.00
254 17.1600 591.00 588.97 11.00
255 17.2100 579.00 588.63 11.00
256 17.2600 594.00 588.29 11.00
257 17.3100 595.00 587.96 11.00
258 17.3600 598.00 587.63 11.00
259 17.4100 575.00 587.31 11.00
260 17.4600 586.00 586.98 11.00
261 17.5100 569.00 586.67 11.00
262 17.5600 580.00 586.35 11.00
263 17.6100 608.00 586.04 11.00
264 17.6600 587.00 585.73 11.00
265 17.7100 579.00 585.42 11.00
266 17.7600 569.00 584.32 11.00
267 17.8100 568.00 584.04 11.00
268 17.8600 602.00 583.77 11.00
269 17.9100 599.00 583.49 12.00
270 17.9600 610.00 583.22 12.00
271 18.0100 604.00 582.95 12.00
272 18.0600 619.00 582.68 12.00
273 18.1100 628.00 582.41 13.00
274 18.1600 589.00 582.15 12.00
275 18.2100 607.00 581.88 12.00
276 18.2600 581.00 581.62 12.00
277 18.3100 590.00 581.36 12.00
278 18.3600 606.00 581.10 12.00
279 18.4100 603.00 580.84 12.00
280 18.4600 597.00 580.59 12.00
281 18.5100 589.00 580.33 12.00
282 18.5600 582.00 580.08 12.00
283 18.6100 600.00 579.83 12.00
284 18.6600 603.00 579.58 12.00
285 18.7100 590.00 579.33 12.00
286 18.7600 595.00 579.09 12.00
287 18.8100 598.00 578.84 12.00
288 18.8600 601.00 578.60 12.00
289 18.9100 598.00 578.35 12.00
290 18.9600 597.00 578.11 11.00
291 19.0100 572.00 577.88 11.00
292 19.0600 569.00 577.64 11.00
293 19.1100 572.00 577.40 11.00
294 19.1600 587.00 577.17 11.00
295 19.2100 586.00 576.93 11.00
296 19.2600 584.00 576.70 11.00
297 19.3100 578.00 576.47 11.00
298 19.3600 572.00 576.24 11.00
299 19.4100 584.00 576.02 11.00
300 19.4600 584.00 575.79 11.00
301 19.5100 600.00 575.57 11.00
302 19.5600 570.00 575.35 11.00
303 19.6100 585.00 575.13 11.00
304 19.6600 575.00 574.91 11.00
305 19.7100 597.00 574.69 11.00
306 19.7600 577.00 574.47 11.00
307 19.8100 594.00 574.26 11.00
308 19.8600 577.00 574.04 11.00
309 19.9100 578.00 573.83 11.00
310 19.9600 560.00 573.62 11.00
311 20.0100 590.00 573.41 11.00
312 20.0600 577.00 573.21 11.00
313 20.1100 593.00 573.00 11.00
314 20.1600 591.00 572.79 11.00
315 20.2100 598.00 572.59 11.00
316 20.2600 580.00 572.39 11.00
317 20.3100 574.00 572.19 12.00
318 20.3600 575.00 571.99 12.00
319 20.4100 569.00 571.79 12.00
320 20.4600 582.00 571.60 12.00
321 20.5100 576.00 571.40 12.00
322 20.5600 564.00 571.21 12.00
323 20.6100 576.00 571.02 12.00
324 20.6600 570.00 570.83 12.00
325 20.7100 589.00 570.64 12.00
326 20.7600 589.00 570.45 12.00
327 20.8100 565.00 570.26 12.00
328 20.8600 565.00 570.08 12.00
329 20.9100 601.00 569.90 12.00
330 20.9600 562.00 569.71 12.00
331 21.0100 579.00 569.53 12.00
332 21.0600 565.00 569.35 12.00
333 21.1100 575.00 569.18 12.00
334 21.1600 572.00 569.89 12.00
335 21.2100 584.00 569.75 12.00
336 21.2600 562.00 569.61 12.00
337 21.3100 588.00 569.48 11.00
338 21.3600 562.00 569.35 11.00
339 21.4100 583.00 569.22 11.00
340 21.4600 578.00 569.10 11.00
341 21.5100 585.00 568.98 11.00
342 21.5600 567.00 568.86 11.00
343 21.6100 574.00 568.76 11.00
344 21.6600 580.00 568.65 11.00
345 21.7100 586.00 568.55 11.00
346 21.7600 575.00 568.46 11.00
347 21.8100 559.00 568.37 11.00
348 21.8600 568.00 568.29 11.00
349 21.9100 591.00 568.22 11.00
350 21.9600 587.00 568.15 11.00
351 22.0100 577.00 568.09 11.00
352 22.0600 567.00 568.04 11.00
353 22.1100 584.00 568.01 11.00
354 22.1600 567.00 567.98 11.00
355 22.2100 566.00 567.96 11.00
356 22.2600 573.00 567.96 11.00
357 22.3100 557.00 567.98 11.00
358 22.3600 570.00 568.01 11.00
359 22.4100 589.00 568.06 11.00
360 22.4600 557.00 568.13 11.00
361 22.5100 567.00 568.23 11.00
362 22.5600 555.00 568.35 11.00
363 22.6100 562.00 568.51 11.00
364 22.6600 570.00 568.71 11.00
365 22.7100 543.00 568.95 12.00
366 22.7600 572.00 569.24 12.00
367 22.8100 572.00 569.59 12.00
368 22.8600 580.00 570.02 12.00
369 22.9100 559.00 570.53 12.00
370 22.9600 578.00 571.17 12.00
371 23.0100 575.00 571.96 12.00
372 23.0600 579.00 573.00 12.00
373 23.1100 580.00 574.49 12.00
374 23.1600 571.00 576.84 12.00
375 23.2100 575.00 580.88 12.00
376 23.2600 580.00 588.15 12.00
377 23.3100 597.00 601.22 12.00
378 23.3600 618.00 624.05 12.00
379 23.4100 679.00 662.23 13.00
380 23.4600 722.00 723.20 13.00
381 23.5100 793.00 816.20 14.00
382 23.5600 930.00 952.05 15.00
383 23.6100 1106.00 1141.77 17.00
384 23.6600 1367.00 1393.01 18.00
385 23.7100 1640.00 1703.63 20.00
386 23.7600 2051.00 2053.13 20.00
387 23.8100 2398.00 2397.08 22.00
388 23.8600 2732.00 2670.59 23.00
389 23.9100 2880.00 2804.36 24.00
390 23.9600 2783.00 2751.00 24.00
391 24.0100 2535.00 2511.72 23.00
392 24.0600 2150.00 2142.96 21.00
393 24.1100 1768.00 1729.83 19.00
394 24.1600 1409.00 1349.34 17.00
395 24.2100 1068.00 1048.35 15.00
396 24.2600 847.00 839.72 13.00
397 24.3100 693.00 711.44 12.00
398 24.3600 620.00 640.65 11.00
399 24.4100 594.00 604.98 11.00
400 24.4600 581.00 588.04 11.00
401 24.5100 580.00 579.98 11.00
402 24.5600 584.00 575.79 11.00
403 24.6100 564.00 573.23 11.00
404 24.6600 579.00 571.39 11.00
405 24.7100 557.00 569.94 11.00
406 24.7600 561.00 568.73 11.00
407 24.8100 568.00 567.70 11.00
408 24.8600 563.00 566.82 11.00
409 24.9100 560.00 566.04 11.00
410 24.9600 546.00 565.37 10.00
411 25.0100 554.00 564.77 10.00
412 25.0600 553.00 564.24 10.00
413 25.1100 549.00 563.77 12.00
414 25.1600 555.00 563.34 12.00
415 25.2100 568.00 562.95 12.00
416 25.2600 583.00 562.60 12.00
417 25.3100 564.00 562.28 12.00
418 25.3600 540.00 561.98 12.00
419 25.4100 578.00 561.71 12.00
420 25.4600 565.00 561.46 12.00
421 25.5100 544.00 565.44 12.00
422 25.5600 577.00 565.38 12.00
423 25.6100 544.00 565.35 12.00
424 25.6600 570.00 565.35 12.00
425 25.7100 553.00 565.36 12.00
426 25.7600 572.00 565.40 12.00
427 25.8100 542.00 565.47 12.00
428 25.8600 556.00 565.55 12.00
429 25.9100 552.00 565.66 12.00
430 25.9600 572.00 565.80 12.00
431 26.0100 564.00 565.96 12.00
432 26.0600 537.00 566.15 12.00
433 26.1100 563.00 566.37 12.00
434 26.1600 545.00 566.62 10.00
435 26.2100 557.00 566.90 11.00
436 26.2600 551.00 567.22 10.00
437 26.3100 568.00 567.58 11.00
438 26.3600 565.00 567.98 11.00
439 26.4100 562.00 568.43 11.00
440 26.4600 565.00 568.93 11.00
441 26.5100 564.00 569.50 11.00
442 26.5600 555.00 570.12 11.00
443 26.6100 565.00 570.82 11.00
444 26.6600 561.00 571.61 11.00
445 26.7100 562.00 572.48 11.00
446 26.7600 545.00 573.47 10.00
447 26.8100 542.00 575.35 10.00
448 26.8600 549.00 575.87 10.00
449 26.9100 573.00 577.35 11.00
450 26.9600 581.00 579.02 11.00
451 27.0100 587.00 580.92 11.00
452 27.0600 582.00 583.10 11.00
453 27.1100 576.00 585.60 11.00
454 27.1600 559.00 588.50 11.00
455 27.2100 560.00 591.89 11.00
456 27.2600 565.00 595.89 11.00
457 27.3100 587.00 600.74 11.00
458 27.3600 579.00 606.86 11.00
459 27.4100 589.00 615.21 11.00
460 27.4600 595.00 627.96 11.00
461 27.5100 643.00 649.72 13.00
462 27.5600 672.00 689.65 13.00
463 27.6100 771.00 764.25 14.00
464 27.6600 884.00 900.73 15.00
465 27.7100 1150.00 1140.03 17.00
466 27.7600 1538.00 1538.19 20.00
467 27.8100 2147.00 2163.28 23.00
468 27.8600 3027.00 3082.57 27.00
469 27.9100 4295.00 4334.03 33.00
470 27.9600 5869.00 5882.90 38.00
471 28.0100 7592.00 7576.11 44.00
472 28.0600 9201.00 9128.34 48.00
473 28.1100 10368.00 10173.20 51.00
474 28.1600 10526.00 10385.10 51.00
475 28.2100 9728.00 9641.49 49.00
476 28.2600 8496.00 8126.20 46.00
477 28.3100 6702.00 6247.57 41.00
478 28.3600 4822.00 4428.05 35.00
479 28.4100 3240.00 2951.25 28.00
480 28.4600 2056.00 1917.87 23.00
481 28.5100 1275.00 1284.79 18.00
482 28.5600 899.00 940.67 13.00
483 28.6100 729.00 771.66 12.00
484 28.6600 668.00 694.21 12.00
485 28.7100 646.00 659.23 11.00
486 28.7600 653.00 642.74 11.00
487 28.8100 620.00 635.19 11.00
488 28.8600 632.00 634.32 11.00
489 28.9100 641.00 641.90 11.00
490 28.9600 660.00 662.82 11.00
491 29.0100 675.00 705.17 12.00
492 29.0600 762.00 780.34 12.00
493 29.1100 885.00 901.99 13.00
494 29.1600 1043.00 1082.78 14.00
495 29.2100 1322.00 1327.68 16.00
496 29.2600 1650.00 1624.65 18.00
497 29.3100 1938.00 1936.81 20.00
498 29.3600 2273.00 2202.90 21.00
499 29.4100 2403.00 2351.91 22.00
500 29.4600 2350.00 2330.84 22.00
501 29.5100 2136.00 2135.55 21.00
502 29.5600 1808.00 1820.48 19.00
503 29.6100 1454.00 1469.09 17.00
504 29.6600 1146.00 1153.72 15.00
505 29.7100 922.00 914.09 14.00
506 29.7600 714.00 756.48 12.00
507 29.8100 642.00 665.35 11.00
508 29.8600 590.00 618.20 11.00
509 29.9100 591.00 595.70 12.00
510 29.9600 579.00 585.22 12.00
511 30.0100 560.00 579.96 12.00
512 30.0600 571.00 576.86 12.00
513 30.1100 585.00 574.68 12.00
514 30.1600 576.00 572.97 12.00
515 30.2100 577.00 571.54 12.00
516 30.2600 562.00 570.33 12.00
517 30.3100 580.00 569.29 12.00
518 30.3600 550.00 568.39 12.00
519 30.4100 567.00 567.60 12.00
520 30.4600 562.00 566.90 12.00
521 30.5100 574.00 566.28 12.00
522 30.5600 558.00 565.73 12.00
523 30.6100 555.00 565.23 12.00
524 30.6600 543.00 564.79 12.00
525 30.7100 556.00 564.39 12.00
526 30.7600 571.00 564.02 12.00
527 30.8100 560.00 563.69 12.00
528 30.8600 529.00 563.39 11.00
529 30.9100 562.00 563.12 12.00
530 30.9600 551.00 559.24 10.00
531 31.0100 538.00 559.14 10.00
532 31.0600 560.00 559.04 11.00
533 31.1100 537.00 558.96 10.00
534 31.1600 562.00 558.89 11.00
535 31.2100 546.00 558.83 10.00
536 31.2600 576.00 558.78 11.00
537 31.3100 565.00 558.73 11.00
538 31.3600 554.00 558.69 10.00
539 31.4100 543.00 558.65 10.00
540 31.4600 574.00 558.62 11.00
541 31.5100 537.00 558.60 10.00
542 31.5600 567.00 558.58 11.00
543 31.6100 554.00 565.91 10.00
544 31.6600 556.00 566.20 11.00
545 31.7100 566.00 566.51 11.00
546 31.7600 580.00 566.85 11.00
547 31.8100 545.00 567.21 10.00
548 31.8600 543.00 567.60 10.00
549 31.9100 552.00 568.02 10.00
550 31.9600 570.00 568.47 11.00
551 32.0100 564.00 568.96 11.00
552 32.0600 558.00 569.48 11.00
553 32.1100 558.00 570.04 11.00
554 32.1600 557.00 570.65 11.00
555 32.2100 553.00 570.63 10.00
556 32.2600 561.00 571.36 12.00
557 32.3100 569.00 572.15 12.00
558 32.3600 560.00 573.01 12.00
559 32.4100 581.00 573.93 12.00
560 32.4600 599.00 574.94 12.00
561 32.5100 580.00 576.04 12.00
562 32.5600 581.00 577.24 12.00
563 32.6100 574.00 578.56 12.00
564 32.6600 572.00 580.01 12.00
565 32.7100 576.00 581.62 12.00
566 32.7600 574.00 583.39 12.00
567 32.8100 590.00 585.37 12.00
568 32.8600 585.00 587.58 12.00
569 32.9100 610.00 590.06 12.00
570 32.9600 606.00 592.86 12.00
571 33.0100 616.00 596.03 12.00
572 33.0600 628.00 599.65 13.00
573 33.1100 630.00 603.81 13.00
574 33.1600 649.00 608.62 13.00
575 33.2100 644.00 614.22 13.00
576 33.2600 639.00 620.79 13.00
577 33.3100 646.00 628.61 13.00
578 33.3600 647.00 638.05 11.00
579 33.4100 663.00 649.83 11.00
580 33.4600 693.00 665.49 12.00
581 33.5100 708.00 688.69 12.00
582 33.5600 719.00 728.17 12.00
583 33.6100 795.00 803.27 13.00
584 33.6600 974.00 953.00 14.00
585 33.7100 1286.00 1247.74 16.00
586 33.7600 1862.00 1799.88 19.00
587 33.8100 2831.00 2762.83 24.00
588 33.8600 4342.00 4301.35 29.00
589 33.9100 6603.00 6516.40 36.00
590 33.9600 9293.00 9327.46 43.00
591 34.0100 12180.00 12368.90 49.00
592 34.0600 14665.00 14987.50 54.00
593 34.1100 16064.00 16412.10 57.00
594 34.1600 15799.00 16089.50 56.00
595 34.2100 13926.00 14049.70 53.00
596 34.2600 10950.00 10958.20 47.00
597 34.3100 7668.00 7703.06 39.00
598 34.3600 4825.00 4958.61 31.00
599 34.4100 2809.00 3016.50 24.00
600 34.4600 1686.00 1837.20 18.00
601 34.5100 1105.00 1211.49 15.00
602 34.5600 891.00 914.20 13.00
603 34.6100 790.00 781.63 13.00
604 34.6600 734.00 721.07 12.00
605 34.7100 719.00 689.31 13.00
606 34.7600 717.00 669.09 13.00
607 34.8100 666.00 654.21 13.00
608 34.8600 640.00 642.41 13.00
609 34.9100 643.00 632.80 13.00
610 34.9600 622.00 624.79 12.00
611 35.0100 641.00 618.06 13.00
612 35.0600 598.00 612.35 12.00
613 35.1100 601.00 607.48 12.00
614 35.1600 603.00 603.28 12.00
615 35.2100 587.00 599.65 12.00
616 35.2600 590.00 596.48 12.00
617 35.3100 576.00 593.71 12.00
618 35.3600 576.00 591.27 12.00
619 35.4100 564.00 589.11 12.00
620 35.4600 591.00 587.19 12.00
621 35.5100 581.00 585.48 12.00
622 35.5600 572.00 583.95 12.00
623 35.6100 577.00 582.58 12.00
624 35.6600 570.00 581.34 12.00
625 35.7100 554.00 580.23 12.00
626 35.7600 580.00 579.22 11.00
627 35.8100 575.00 578.31 11.00
628 35.8600 565.00 577.48 11.00
629 35.9100 579.00 576.72 11.00
630 35.9600 567.00 576.03 11.00
631 36.0100 562.00 575.41 11.00
632 36.0600 579.00 574.84 11.00
633 36.1100 568.00 574.31 11.00
634 36.1600 546.00 573.83 10.00
635 36.2100 570.00 573.40 11.00
636 36.2600 567.00 573.00 11.00
637 36.3100 571.00 572.63 11.00
638 36.3600 577.00 572.30 11.00
639 36.4100 567.00 572.00 11.00
640 36.4600 569.00 571.73 11.00
641 36.5100 570.00 571.48 11.00
642 36.5600 571.00 571.27 11.00
643 36.6100 570.00 571.08 11.00
644 36.6600 582.00 570.92 11.00
645 36.7100 555.00 570.80 11.00
646 36.7600 545.00 564.15 10.00
647 36.8100 561.00 564.49 11.00
648 36.8600 567.00 565.11 11.00
649 36.9100 566.00 566.31 11.00
650 36.9600 568.00 568.58 11.00
651 37.0100 571.00 572.60 11.00
652 37.0600 564.00 579.06 11.00
653 37.1100 563.00 588.30 12.00
654 37.1600 598.00 599.68 12.00
655 37.2100 600.00 611.25 12.00
656 37.2600 603.00 619.97 12.00
657 37.3100 636.00 622.79 13.00
658 37.3600 611.00 618.35 12.00
659 37.4100 605.00 608.16 12.00
660 37.4600 585.00 595.73 12.00
661 37.5100 587.00 584.37 12.00
662 37.5600 569.00 575.91 12.00
663 37.6100 585.00 570.61 12.00
664 37.6600 559.00 567.78 12.00
665 37.7100 559.00 566.46 12.00
666 37.7600 568.00 565.92 12.00
667 37.8100 566.00 565.72 12.00
668 37.8600 559.00 565.66 12.00
669 37.9100 570.00 565.65 12.00
670 37.9600 555.00 565.66 12.00
671 38.0100 561.00 565.68 12.00
672 38.0600 560.00 565.72 12.00
673 38.1100 557.00 565.76 12.00
674 38.1600 571.00 565.81 11.00
675 38.2100 572.00 565.86 11.00
676 38.2600 565.00 565.92 11.00
677 38.3100 570.00 565.97 11.00
678 38.3600 563.00 566.04 11.00
679 38.4100 565.00 566.10 11.00
680 38.4600 571.00 566.16 11.00
681 38.5100 567.00 566.23 11.00
682 38.5600 570.00 566.29 11.00
683 38.6100 553.00 566.36 10.00
684 38.6600 576.00 566.43 11.00
685 38.7100 559.00 566.50 11.00
686 38.7600 561.00 566.57 11.00
687 38.8100 565.00 566.64 11.00
688 38.8600 586.00 566.71 11.00
689 38.9100 564.00 566.78 11.00
690 38.9600 556.00 566.85 11.00
691 39.0100 558.00 566.92 11.00
692 39.0600 566.00 566.99 11.00
693 39.1100 572.00 567.07 11.00
694 39.1600 567.00 567.14 11.00
695 39.2100 562.00 567.21 11.00
696 39.2600 565.00 567.28 11.00
697 39.3100 557.00 567.36 11.00
698 39.3600 561.00 567.43 11.00
699 39.4100 553.00 567.50 10.00
700 39.4600 546.00 567.58 10.00
701 39.5100 557.00 567.65 12.00
702 39.5600 572.00 567.72 12.00
703 39.6100 563.00 567.80 12.00
704 39.6600 568.00 567.87 12.00
705 39.7100 556.00 567.94 12.00
706 39.7600 575.00 568.02 12.00
707 39.8100 595.00 568.09 12.00
708 39.8600 569.00 568.95 12.00
709 39.9100 565.00 569.06 12.00
710 39.9600 569.00 569.17 12.00
711 40.0100 578.00 569.29 12.00
712 40.0600 568.00 569.41 12.00
713 40.1100 567.00 569.53 12.00
714 40.1600 579.00 569.66 12.00
715 40.2100 563.00 569.78 12.00
716 40.2600 565.00 569.92 12.00
717 40.3100 570.00 570.06 12.00
718 40.3600 583.00 570.20 12.00
719 40.4100 555.00 570.35 12.00
720 40.4600 566.00 570.51 12.00
721 40.5100 578.00 570.68 12.00
722 40.5600 585.00 570.85 11.00
723 40.6100 554.00 571.04 10.00
724 40.6600 570.00 571.23 11.00
725 40.7100 583.00 571.44 11.00
726 40.7600 585.00 571.66 11.00
727 40.8100 573.00 571.90 11.00
728 40.8600 572.00 572.16 11.00
729 40.9100 583.00 572.45 11.00
730 40.9600 574.00 572.75 11.00
731 41.0100 566.00 573.09 11.00
732 41.0600 580.00 573.47 11.00
733 41.1100 579.00 573.90 11.00
734 41.1600 586.00 574.37 11.00
735 41.2100 571.00 574.92 11.00
736 41.2600 576.00 575.54 11.00
737 41.3100 584.00 576.26 11.00
738 41.3600 579.00 577.11 11.00
739 41.4100 572.00 578.12 11.00
740 41.4600 569.00 579.34 11.00
741 41.5100 573.00 580.86 11.00
742 41.5600 593.00 582.87 11.00
743 41.6100 574.00 585.84 11.00
744 41.6600 616.00 591.03 11.00
745 41.7100 596.00 601.57 11.00
746 41.7600 620.00 624.35 11.00
747 41.8100 671.00 672.33 12.00
748 41.8600 766.00 765.43 12.00
749 41.9100 930.00 926.39 15.00
750 41.9600 1200.00 1167.70 17.00
751 42.0100 1549.00 1472.02 20.00
752 42.0600 1823.00 1778.47 21.00
753 42.1100 2011.00 1992.43 22.00
754 42.1600 2040.00 2025.67 23.00
755 42.2100 1907.00 1855.68 22.00
756 42.2600 1609.00 1552.25 20.00
757 42.3100 1298.00 1224.53 18.00
758 42.3600 978.00 954.54 16.00
759 42.4100 775.00 773.40 14.00
760 42.4600 677.00 671.51 13.00
761 42.5100 627.00 622.16 12.00
762 42.5600 612.00 600.66 12.00
763 42.6100 616.00 599.36 12.00
764 42.6600 590.00 595.35 12.00
765 42.7100 591.00 593.16 12.00
766 42.7600 599.00 591.77 12.00
767 42.8100 599.00 590.83 12.00
768 42.8600 604.00 590.22 12.00
769 42.9100 592.00 589.85 12.00
770 42.9600 593.00 589.69 11.00
771 43.0100 588.00 589.70 11.00
772 43.0600 596.00 589.87 11.00
773 43.1100 600.00 590.18 11.00
774 43.1600 613.00 590.62 11.00
775 43.2100 591.00 591.19 11.00
776 43.2600 592.00 591.89 11.00
777 43.3100 601.00 592.72 11.00
778 43.3600 608.00 593.69 11.00
779 43.4100 595.00 594.81 11.00
780 43.4600 593.00 596.09 11.00
781 43.5100 613.00 597.54 11.00
782 43.5600 592.00 599.21 11.00
783 43.6100 617.00 601.10 11.00
784 43.6600 615.00 603.26 11.00
785 43.7100 621.00 605.73 11.00
786 43.7600 610.00 608.56 11.00
787 43.8100 611.00 611.82 11.00
788 43.8600 619.00 615.60 11.00
789 43.9100 626.00 620.01 11.00
790 43.9600 625.00 625.18 11.00
791 44.0100 638.00 631.31 11.00
792 44.0600 644.00 638.62 11.00
793 44.1100 664.00 647.45 11.00
794 44.1600 659.00 658.26 11.00
795 44.2100 655.00 671.77 11.00
796 44.2600 710.00 689.36 12.00
797 44.3100 727.00 714.45 13.00
798 44.3600 787.00 756.31 14.00
799 44.4100 895.00 839.71 15.00
800 44.4600 1053.00 1023.50 16.00
801 44.5100 1462.00 1427.01 19.00
802 44.5600 2338.00 2245.76 24.00
803 44.6100 3779.00 3720.16 31.00
804 44.6600 6070.00 5998.95 39.00
805 44.7100 8971.00 8925.09 47.00
806 44.7600 11820.00 11877.90 54.00
807 44.8100 13755.00 13874.70 59.00
808 44.8600 13984.00 14025.00 59.00
809 44.9100 12403.00 12186.40 56.00
810 44.9600 9558.00 9172.77 49.00
811 45.0100 6348.00 6090.92 40.00
812 45.0600 3891.00 3682.03 31.00
813 45.1100 2247.00 2153.96 24.00
814 45.1600 1361.00 1343.24 18.00
815 45.2100 1025.00 971.42 16.00
816 45.2600 872.00 814.67 15.00
817 45.3100 787.00 746.49 14.00
818 45.3600 737.00 711.17 12.00
819 45.4100 717.00 688.43 12.00
820 45.4600 692.00 671.61 12.00
821 45.5100 705.00 658.41 12.00
822 45.5600 663.00 647.77 11.00
823 45.6100 656.00 639.06 11.00
824 45.6600 659.00 631.84 11.00
825 45.7100 640.00 625.80 11.00
826 45.7600 627.00 620.70 11.00
827 45.8100 639.00 616.34 11.00
828 45.8600 634.00 612.61 11.00
829 45.9100 638.00 609.38 11.00
830 45.9600 630.00 606.57 11.00
831 46.0100 619.00 604.11 11.00
832 46.0600 595.00 601.94 11.00
833 46.1100 613.00 600.03 11.00
834 46.1600 595.00 598.34 11.00
835 46.2100 629.00 596.83 11.00
836 46.2600 603.00 595.47 11.00
837 46.3100 587.00 594.26 11.00
838 46.3600 610.00 593.17 11.00
839 46.4100 605.00 592.18 11.00
840 46.4600 591.00 591.29 11.00
841 46.5100 608.00 590.48 11.00
842 46.5600 609.00 589.74 11.00
843 46.6100 593.00 589.07 11.00
844 46.6600 606.00 588.45 11.00
845 46.7100 626.00 587.89 12.00
846 46.7600 611.00 587.37 12.00
847 46.8100 600.00 586.89 12.00
848 46.8600 593.00 586.46 12.00
849 46.9100 608.00 607.47 12.00
850 46.9600 604.00 608.12 12.00
851 47.0100 612.00 608.88 12.00
852 47.0600 611.00 609.74 12.00
853 47.1100 626.00 610.72 12.00
854 47.1600 636.00 611.82 13.00
855 47.2100 621.00 606.15 12.00
856 47.2600 609.00 607.80 12.00
857 47.3100 603.00 609.60 12.00
858 47.3600 622.00 611.55 12.00
859 47.4100 635.00 613.67 13.00
860 47.4600 615.00 615.99 12.00
861 47.5100 629.00 618.53 13.00
862 47.5600 653.00 621.32 13.00
863 47.6100 641.00 624.39 13.00
864 47.6600 641.00 627.79 13.00
865 47.7100 652.00 631.56 13.00
866 47.7600 671.00 635.77 12.00
867 47.8100 668.00 640.47 12.00
868 47.8600 651.00 645.76 11.00
869 47.9100 657.00 651.73 11.00
870 47.9600 670.00 658.50 12.00
871 48.0100 676.00 666.24 12.00
872 48.0600 694.00 675.14 12.00
873 48.1100 688.00 685.42 12.00
874 48.1600 681.00 697.41 12.00
875 48.2100 691.00 711.48 12.00
876 48.2600 723.00 728.17 12.00
877 48.3100 702.00 748.16 12.00
878 48.3600 782.00 772.36 12.00
879 48.4100 773.00 802.07 12.00
880 48.4600 831.00 839.18 13.00
881 48.5100 847.00 887.06 13.00
882 48.5600 950.00 953.36 14.00
883 48.6100 1051.00 1059.49 14.00
884 48.6600 1272.00 1266.76 16.00
885 48.7100 1736.00 1733.63 19.00
886 48.7600 2815.00 2804.17 24.00
887 48.8100 5119.00 5069.43 32.00
888 48.8600 9191.00 9250.22 43.00
889 48.9100 15967.00 15731.90 57.00
890 48.9600 24077.00 23835.00 69.00
891 49.0100 31244.00 31397.50 79.00
892 49.0600 34735.00 35366.30 83.00
893 49.1100 32708.00 33614.50 90.00
894 49.1600 26353.00 26935.00 81.00
895 49.2100 18026.00 18446.70 67.00
896 49.2600 10628.00 11021.20 52.00
897 49.3100 5696.00 5966.84 38.00
898 49.3600 3020.00 3167.10 27.00
899 49.4100 1810.00 1861.31 21.00
900 49.4600 1382.00 1315.72 19.00
901 49.5100 1192.00 1087.28 17.00
902 49.5600 1089.00 974.74 16.00
903 49.6100 987.00 904.86 16.00
904 49.6600 916.00 854.20 15.00
905 49.7100 884.00 814.94 15.00
906 49.7600 802.00 783.63 14.00
907 49.8100 773.00 758.23 14.00
908 49.8600 774.00 737.38 14.00
909 49.9100 738.00 720.07 14.00
910 49.9600 726.00 705.56 13.00
911 50.0100 710.00 693.29 13.00
912 50.0600 683.00 682.85 13.00
913 50.1100 675.00 673.90 13.00
914 50.1600 676.00 666.20 12.00
915 50.2100 656.00 659.63 11.00
916 50.2600 671.00 653.86 12.00
917 50.3100 648.00 648.86 11.00
918 50.3600 664.00 644.53 11.00
919 50.4100 656.00 640.78 11.00
920 50.4600 642.00 637.55 11.00
921 50.5100 646.00 634.81 11.00
922 50.5600 626.00 632.52 11.00
923 50.6100 612.00 630.66 11.00
924 50.6600 640.00 629.23 11.00
925 50.7100 610.00 628.25 11.00
926 50.7600 646.00 627.75 11.00
927 50.8100 627.00 627.77 11.00
928 50.8600 630.00 628.43 11.00
929 50.9100 620.00 629.88 11.00
930 50.9600 643.00 632.46 11.00
931 51.0100 637.00 637.02 11.00
932 51.0600 653.00 646.15 11.00
933 51.1100 662.00 667.25 11.00
934 51.1600 730.00 718.53 12.00
935 51.2100 839.00 835.99 13.00
936 51.2600 1089.00 1072.33 15.00
937 51.3100 1461.00 1452.49 17.00
938 51.3600 2072.00 2001.08 20.00
939 51.4100 2659.00 2571.81 23.00
940 51.4600 3027.00 2944.70 25.00
941 51.5100 3011.00 2923.51 27.00
942 51.5600 2605.00 2509.59 26.00
943 51.6100 1995.00 1915.49 22.00
944 51.6600 1413.00 1369.81 19.00
945 51.7100 1012.00 989.20 16.00
946 51.7600 796.00 776.32 14.00
947 51.8100 688.00 677.22 13.00
948 51.8600 641.00 636.72 13.00
949 51.9100 638.00 621.08 13.00
950 51.9600 618.00 615.99 12.00
951 52.0100 610.00 618.04 12.00
952 52.0600 622.00 628.31 12.00
953 52.1100 645.00 648.10 13.00
954 52.1600 680.00 675.10 13.00
955 52.2100 711.00 701.06 13.00
956 52.2600 707.00 713.91 13.00
957 52.3100 704.00 705.30 13.00
958 52.3600 650.00 679.00 13.00
959 52.4100 630.00 647.40 13.00
960 52.4600 610.00 620.98 12.00
961 52.5100 601.00 603.74 12.00
962 52.5600 587.00 594.50 11.00
963 52.6100 592.00 590.18 11.00
964 52.6600 567.00 588.20 11.00
965 52.7100 593.00 587.17 11.00
966 52.7600 605.00 586.49 11.00
967 52.8100 600.00 585.97 11.00
968 52.8600 583.00 585.55 11.00
969 52.9100 605.00 585.18 11.00
970 52.9600 615.00 584.88 11.00
971 53.0100 602.00 584.61 11.00
972 53.0600 614.00 584.38 11.00
973 53.1100 603.00 584.17 11.00
974 53.1600 603.00 583.99 11.00
975 53.2100 586.00 583.83 11.00
976 53.2600 568.00 583.69 11.00
977 53.3100 577.00 584.08 11.00
978 53.3600 560.00 584.00 11.00
979 53.4100 583.00 583.92 11.00
980 53.4600 572.00 583.86 11.00
981 53.5100 575.00 583.81 11.00
982 53.5600 571.00 583.78 11.00
983 53.6100 583.00 583.75 11.00
984 53.6600 570.00 582.28 11.00
985 53.7100 580.00 582.34 11.00
986 53.7600 566.00 582.40 11.00
987 53.8100 574.00 582.47 11.00
988 53.8600 568.00 582.54 11.00
989 53.9100 566.00 582.62 12.00
990 53.9600 568.00 582.72 12.00
991 54.0100 579.00 582.82 12.00
992 54.0600 573.00 582.93 12.00
993 54.1100 582.00 583.05 12.00
994 54.1600 558.00 583.19 12.00
995 54.2100 563.00 583.34 12.00
996 54.2600 573.00 583.52 12.00
997 54.3100 558.00 583.72 12.00
998 54.3600 570.00 583.94 12.00
999 54.4100 569.00 584.20 12.00
1000 54.4600 569.00 584.43 12.00
1001 54.5100 567.00 584.79 12.00
1002 54.5600 567.00 585.22 12.00
1003 54.6100 563.00 585.73 12.00
1004 54.6600 589.00 586.35 12.00
1005 54.7100 575.00 587.11 12.00
1006 54.7600 568.00 588.07 12.00
1007 54.8100 586.00 589.30 12.00
1008 54.8600 587.00 591.01 12.00
1009 54.9100 600.00 593.71 12.00
1010 54.9600 597.00 599.07 11.00
1011 55.0100 601.00 611.66 11.00
1012 55.0600 615.00 641.75 11.00
1013 55.1100 703.00 706.51 12.00
1014 55.1600 807.00 823.78 13.00
1015 55.2100 965.00 994.31 14.00
1016 55.2600 1166.00 1181.17 15.00
1017 55.3100 1302.00 1309.75 16.00
1018 55.3600 1322.00 1307.98 16.00
1019 55.4100 1200.00 1173.93 15.00
1020 55.4600 988.00 982.58 14.00
1021 55.5100 795.00 811.60 13.00
1022 55.5600 703.00 699.89 12.00
1023 55.6100 622.00 639.01 11.00
1024 55.6600 599.00 612.10 11.00
1025 55.7100 578.00 601.43 11.00
1026 55.7600 593.00 597.06 11.00
1027 55.8100 590.00 594.88 11.00
1028 55.8600 586.00 593.54 11.00
1029 55.9100 600.00 592.63 11.00
1030 55.9600 568.00 592.00 11.00
1031 56.0100 566.00 591.59 11.00
1032 56.0600 577.00 591.34 11.00
1033 56.1100 582.00 591.23 11.00
1034 56.1600 579.00 591.25 11.00
1035 56.2100 576.00 591.37 11.00
1036 56.2600 560.00 591.60 11.00
1037 56.3100 559.00 592.66 12.00
1038 56.3600 572.00 593.13 12.00
1039 56.4100 579.00 593.71 12.00
1040 56.4600 595.00 594.41 12.00
1041 56.5100 575.00 595.25 12.00
1042 56.5600 586.00 596.25 12.00
1043 56.6100 572.00 597.43 12.00
1044 56.6600 576.00 598.83 12.00
1045 56.7100 573.00 600.50 12.00
1046 56.7600 583.00 602.50 12.00
1047 56.8100 589.00 604.91 12.00
1048 56.8600 583.00 607.85 12.00
1049 56.9100 584.00 611.47 12.00
1050 56.9600 600.00 615.98 12.00
1051 57.0100 609.00 621.72 12.00
1052 57.0600 627.00 629.27 12.00
1053 57.1100 605.00 639.97 12.00
1054 57.1600 634.00 657.90 13.00
1055 57.2100 668.00 695.76 13.00
1056 57.2600 742.00 787.65 14.00
1057 57.3100 922.00 1005.31 15.00
1058 57.3600 1322.00 1454.94 16.00
1059 57.4100 2115.00 2216.61 21.00
1060 57.4600 3179.00 3220.70 25.00
1061 57.5100 4186.00 4157.96 29.00
1062 57.5600 4616.00 4564.87 30.00
1063 57.6100 4286.00 4173.82 29.00
1064 57.6600 3382.00 3225.76 26.00
1065 57.7100 2259.00 2206.50 21.00
1066 57.7600 1428.00 1439.56 17.00
1067 57.8100 983.00 995.30 14.00
1068 57.8600 766.00 788.38 12.00
1069 57.9100 695.00 708.47 12.00
1070 57.9600 688.00 686.92 12.00
1071 58.0100 703.00 702.17 12.00
1072 58.0600 768.00 764.69 12.00
1073 58.1100 908.00 898.42 13.00
1074 58.1600 1145.00 1112.48 15.00
1075 58.2100 1406.00 1366.58 17.00
1076 58.2600 1579.00 1560.05 18.00
1077 58.3100 1616.00 1580.55 18.00
1078 58.3600 1435.00 1408.86 17.00
1079 58.4100 1174.00 1147.14 15.00
1080 58.4600 893.00 909.79 13.00
1081 58.5100 751.00 750.83 12.00
1082 58.5600 655.00 666.77 11.00
1083 58.6100 622.00 629.65 11.00
1084 58.6600 593.00 614.48 11.00
1085 58.7100 590.00 607.64 12.00
1086 58.7600 595.00 603.70 12.00
1087 58.8100 603.00 600.92 12.00
1088 58.8600 573.00 598.77 12.00
1089 58.9100 586.00 597.04 12.00
1090 58.9600 583.00 595.62 12.00
1091 59.0100 581.00 594.45 12.00
1092 59.0600 580.00 593.46 12.00
1093 59.1100 580.00 592.61 12.00
1094 59.1600 591.00 591.89 12.00
1095 59.2100 610.00 597.81 12.00
1096 59.2600 615.00 597.61 12.00
1097 59.3100 630.00 597.51 13.00
1098 59.3600 611.00 597.49 12.00
1099 59.4100 625.00 597.56 12.00
1100 59.4600 632.00 597.71 13.00
1101 59.5100 629.00 597.95 13.00
1102 59.5600 594.00 598.26 12.00
1103 59.6100 593.00 598.65 12.00
1104 59.6600 621.00 596.53 12.00
1105 59.7100 592.00 597.23 12.00
1106 59.7600 576.00 598.03 11.00
1107 59.8100 600.00 598.92 11.00
1108 59.8600 587.00 599.94 11.00
1109 59.9100 603.00 601.10 11.00
1110 59.9600 576.00 602.41 11.00
1111 60.0100 557.00 603.91 11.00
1112 60.0600 611.00 605.62 11.00
1113 60.1100 609.00 607.59 11.00
1114 60.1600 598.00 609.86 11.00
1115 60.2100 605.00 612.50 11.00
1116 60.2600 601.00 615.60 11.00
1117 60.3100 590.00 619.24 11.00
1118 60.3600 609.00 622.92 11.00
1119 60.4100 586.00 628.17 11.00
1120 60.4600 591.00 634.56 11.00
1121 60.5100 610.00 642.41 11.00
1122 60.5600 622.00 652.22 11.00
1123 60.6100 653.00 664.72 11.00
1124 60.6600 656.00 681.08 11.00
1125 60.7100 665.00 703.88 12.00
1126 60.7600 710.00 740.75 12.00
1127 60.8100 791.00 816.40 13.00
1128 60.8600 951.00 1001.34 14.00
1129 60.9100 1421.00 1452.69 17.00
1130 60.9600 2452.00 2413.83 22.00
1131 61.0100 4250.00 4075.66 29.00
1132 61.0600 6561.00 6279.55 36.00
1133 61.1100 8487.00 8290.28 46.00
1134 61.1600 9056.00 9024.36 48.00
1135 61.2100 8035.00 7957.21 45.00
1136 61.2600 5955.00 5793.54 39.00
1137 61.3100 3723.00 3640.04 30.00
1138 61.3600 2084.00 2126.49 23.00
1139 61.4100 1241.00 1302.09 18.00
1140 61.4600 879.00 937.04 15.00
1141 61.5100 785.00 793.16 14.00
1142 61.5600 734.00 733.50 14.00
1143 61.6100 707.00 702.43 13.00
1144 61.6600 705.00 682.14 13.00
1145 61.7100 676.00 667.28 13.00
1146 61.7600 667.00 655.93 13.00
1147 61.8100 641.00 647.08 13.00
1148 61.8600 642.00 640.10 13.00
1149 61.9100 630.00 634.55 13.00
1150 61.9600 641.00 630.11 13.00
1151 62.0100 618.00 626.57 12.00
1152 62.0600 625.00 623.75 12.00
1153 62.1100 600.00 621.54 12.00
1154 62.1600 608.00 619.86 11.00
1155 62.2100 610.00 618.65 11.00
1156 62.2600 594.00 617.88 11.00
1157 62.3100 616.00 617.53 11.00
1158 62.3600 614.00 617.59 11.00
1159 62.4100 603.00 618.10 11.00
1160 62.4600 610.00 619.09 11.00
1161 62.5100 602.00 620.63 11.00
1162 62.5600 611.00 622.83 11.00
1163 62.6100 609.00 625.83 11.00
1164 62.6600 610.00 629.87 11.00
1165 62.7100 642.00 635.29 11.00
1166 62.7600 641.00 642.64 11.00
1167 62.8100 637.00 653.09 11.00
1168 62.8600 645.00 670.04 11.00
1169 62.9100 679.00 704.72 12.00
1170 62.9600 771.00 790.04 12.00
1171 63.0100 986.00 1001.40 14.00
1172 63.0600 1471.00 1458.45 17.00
1173 63.1100 2315.00 2256.56 22.00
1174 63.1600 3356.00 3312.34 26.00
1175 63.2100 4278.00 4271.16 29.00
1176 63.2600 4502.00 4587.95 30.00
1177 63.3100 3968.00 4027.73 28.00
1178 63.3600 2940.00 2971.69 24.00
1179 63.4100 1908.00 1957.30 20.00
1180 63.4600 1205.00 1265.15 16.00
1181 63.5100 890.00 900.39 15.00
1182 63.5600 731.00 743.02 13.00
1183 63.6100 697.00 681.44 13.00
1184 63.6600 676.00 655.19 13.00
1185 63.7100 673.00 640.88 13.00
1186 63.7600 627.00 631.25 12.00
1187 63.8100 653.00 624.09 13.00
1188 63.8600 634.00 618.58 13.00
1189 63.9100 618.00 614.23 12.00
1190 63.9600 627.00 610.75 12.00
1191 64.0100 622.00 607.93 12.00
1192 64.0600 599.00 605.61 12.00
1193 64.1100 593.00 603.68 12.00
1194 64.1600 609.00 602.07 12.00
1195 64.2100 598.00 600.70 12.00
1196 64.2600 610.00 599.54 12.00
1197 64.3100 593.00 598.55 12.00
1198 64.3600 605.00 597.69 12.00
1199 64.4100 607.00 596.95 12.00
1200 64.4600 622.00 596.31 12.00
1201 64.5100 615.00 595.75 12.00
1202 64.5600 618.00 595.26 11.00
1203 64.6100 602.00 594.83 11.00
1204 64.6600 600.00 594.45 11.00
1205 64.7100 600.00 594.11 11.00
1206 64.7600 603.00 596.05 11.00
1207 64.8100 597.00 595.91 11.00
1208 64.8600 607.00 595.82 11.00
1209 64.9100 616.00 595.76 11.00
1210 64.9600 582.00 595.73 11.00
1211 65.0100 596.00 595.74 11.00
1212 65.0600 599.00 595.79 11.00
1213 65.1100 585.00 595.87 11.00
1214 65.1600 589.00 595.99 11.00
1215 65.2100 609.00 596.15 11.00
1216 65.2600 572.00 593.39 11.00
1217 65.3100 626.00 593.77 11.00
1218 65.3600 586.00 594.18 11.00
1219 65.4100 599.00 594.64 11.00
1220 65.4600 591.00 595.14 11.00
1221 65.5100 603.00 595.70 11.00
1222 65.5600 620.00 596.33 11.00
1223 65.6100 586.00 597.04 11.00
1224 65.6600 600.00 597.84 11.00
1225 65.7100 594.00 598.76 11.00
1226 65.7600 586.00 599.82 11.00
1227 65.8100 586.00 601.05 11.00
1228 65.8600 602.00 602.49 11.00
1229 65.9100 631.00 604.22 13.00
1230 65.9600 632.00 606.29 13.00
1231 66.0100 621.00 608.81 12.00
1232 66.0600 628.00 611.94 13.00
1233 66.1100 620.00 615.88 12.00
1234 66.1600 600.00 620.96 12.00
1235 66.2100 624.00 627.77 12.00
1236 66.2600 652.00 637.78 13.00
1237 66.3100 664.00 655.75 13.00
1238 66.3600 680.00 696.96 13.00
1239 66.4100 784.00 801.03 14.00
1240 66.4600 1024.00 1042.10 16.00
1241 66.5100 1478.00 1502.13 19.00
1242 66.5600 2191.00 2180.35 23.00
1243 66.6100 2857.00 2887.70 27.00
1244 66.6600 3251.00 3258.01 28.00
1245 66.7100 3042.00 3023.89 28.00
1246 66.7600 2497.00 2362.88 25.00
1247 66.8100 1764.00 1648.96 21.00
1248 66.8600 1144.00 1131.29 17.00
1249 66.9100 830.00 846.76 14.00
1250 66.9600 715.00 720.97 12.00
1251 67.0100 653.00 671.88 11.00
1252 67.0600 673.00 651.85 12.00
1253 67.1100 657.00 641.66 11.00
1254 67.1600 645.00 635.24 11.00
1255 67.2100 648.00 630.80 11.00
1256 67.2600 621.00 627.67 11.00
1257 67.3100 637.00 625.51 11.00
1258 67.3600 643.00 624.11 11.00
1259 67.4100 625.00 623.32 11.00
1260 67.4600 622.00 623.04 11.00
1261 67.5100 632.00 623.23 11.00
1262 67.5600 623.00 623.85 11.00
1263 67.6100 636.00 624.90 11.00
1264 67.6600 652.00 626.39 11.00
1265 67.7100 627.00 628.35 11.00
1266 67.7600 623.00 630.85 11.00
1267 67.8100 624.00 633.96 11.00
1268 67.8600 618.00 637.81 11.00
1269 67.9100 623.00 642.56 11.00
1270 67.9600 652.00 648.42 11.00
1271 68.0100 657.00 655.72 11.00
1272 68.0600 680.00 664.90 12.00
1273 68.1100 681.00 676.59 12.00
1274 68.1600 675.00 691.74 12.00
1275 68.2100 677.00 712.03 12.00
1276 68.2600 725.00 741.35 12.00
1277 68.3100 802.00 791.97 14.00
1278 68.3600 870.00 904.11 15.00
1279 68.4100 1161.00 1187.22 17.00
1280 68.4600 1832.00 1859.05 21.00
1281 68.5100 3257.00 3186.66 29.00
1282 68.5600 5390.00 5226.95 37.00
1283 68.6100 7696.00 7478.16 44.00
1284 68.6600 8964.00 8828.00 47.00
1285 68.7100 8610.00 8317.30 46.00
1286 68.7600 6742.00 6324.29 41.00
1287 68.8100 4417.00 4068.22 33.00
1288 68.8600 2485.00 2379.22 25.00
1289 68.9100 1408.00 1427.92 19.00
1290 68.9600 1004.00 998.86 16.00
1291 69.0100 818.00 828.98 14.00
1292 69.0600 781.00 758.89 14.00
1293 69.1100 784.00 722.62 14.00
1294 69.1600 749.00 698.99 14.00
1295 69.2100 738.00 681.73 14.00
1296 69.2600 685.00 668.54 13.00
1297 69.3100 698.00 658.22 13.00
1298 69.3600 691.00 650.00 12.00
1299 69.4100 668.00 643.36 12.00
1300 69.4600 665.00 637.94 12.00
1301 69.5100 660.00 633.45 11.00
1302 69.5600 675.00 629.69 12.00
1303 69.6100 636.00 626.53 11.00
1304 69.6600 667.00 623.85 12.00
1305 69.7100 640.00 621.55 11.00
1306 69.7600 646.00 619.58 11.00
1307 69.8100 641.00 617.87 11.00
1308 69.8600 640.00 616.39 11.00
1309 69.9100 636.00 615.09 11.00
1310 69.9600 643.00 613.96 11.00
1311 70.0100 630.00 612.96 11.00
1312 70.0600 628.00 620.49 11.00
1313 70.1100 617.00 620.17 11.00
1314 70.1600 624.00 619.99 11.00
1315 70.2100 637.00 619.92 11.00
1316 70.2600 620.00 619.97 11.00
1317 70.3100 607.00 620.14 11.00
1318 70.3600 623.00 620.42 11.00
1319 70.4100 649.00 620.82 11.00
1320 70.4600 644.00 621.33 11.00
1321 70.5100 612.00 621.98 11.00
1322 70.5600 628.00 622.76 11.00
1323 70.6100 608.00 623.69 11.00
1324 70.6600 620.00 618.27 11.00
1325 70.7100 626.00 619.86 12.00
1326 70.7600 615.00 621.63 12.00
1327 70.8100 648.00 623.62 13.00
1328 70.8600 625.00 625.86 12.00
1329 70.9100 655.00 628.41 13.00
1330 70.9600 653.00 631.32 13.00
1331 71.0100 665.00 634.68 13.00
1332 71.0600 649.00 638.58 13.00
1333 71.1100 652.00 643.14 13.00
1334 71.1600 678.00 648.55 13.00
1335 71.2100 696.00 655.01 13.00
1336 71.2600 692.00 662.83 13.00
1337 71.3100 703.00 672.42 13.00
1338 71.3600 690.00 684.36 13.00
1339 71.4100 717.00 699.50 13.00
1340 71.4600 726.00 719.13 13.00
1341 71.5100 751.00 745.64 14.00
1342 71.5600 819.00 785.15 14.00
1343 71.6100 846.00 857.64 15.00
1344 71.6600 990.00 1025.95 16.00
1345 71.7100 1413.00 1447.42 19.00
1346 71.7600 2184.00 2399.60 21.00
1347 71.8100 3933.00 4152.00 28.00
1348 71.8600 6271.00 6615.88 35.00
1349 71.9100 8521.00 8999.69 41.00
1350 71.9600 9483.00 9947.11 44.00
1351 72.0100 8582.00 8730.01 41.00
1352 72.0600 6434.00 6253.00 36.00
1353 72.1100 3970.00 3853.44 28.00
1354 72.1600 2248.00 2218.43 21.00
1355 72.2100 1324.00 1361.46 16.00
1356 72.2600 1008.00 992.46 14.00
1357 72.3100 868.00 846.31 13.00
1358 72.3600 822.00 781.88 13.00
1359 72.4100 786.00 745.53 13.00
1360 72.4600 750.00 720.70 12.00
1361 72.5100 768.00 702.26 12.00
1362 72.5600 735.00 688.09 12.00
1363 72.6100 724.00 677.04 12.00
1364 72.6600 704.00 668.22 12.00
1365 72.7100 665.00 661.12 12.00
1366 72.7600 662.00 655.36 11.00
1367 72.8100 671.00 650.64 12.00
1368 72.8600 673.00 646.78 12.00
1369 72.9100 651.00 643.60 11.00
1370 72.9600 671.00 641.01 12.00
1371 73.0100 634.00 638.90 11.00
1372 73.0600 636.00 637.24 11.00
1373 73.1100 657.00 635.97 13.00
1374 73.1600 643.00 635.08 13.00
1375 73.2100 663.00 634.57 13.00
1376 73.2600 619.00 634.45 12.00
1377 73.3100 621.00 634.77 12.00
1378 73.3600 635.00 635.62 13.00
1379 73.4100 634.00 637.13 13.00
1380 73.4600 633.00 639.62 13.00
1381 73.5100 646.00 643.94 13.00
1382 73.5600 650.00 652.95 13.00
1383 73.6100 674.00 675.24 13.00
1384 73.6600 701.00 730.97 13.00
1385 73.7100 823.00 852.46 14.00
1386 73.7600 1026.00 1065.19 16.00
1387 73.8100 1312.00 1346.72 18.00
1388 73.8600 1551.00 1594.36 20.00
1389 73.9100 1613.00 1649.14 20.00
1390 73.9600 1456.00 1477.89 19.00
1391 74.0100 1230.00 1195.03 18.00
1392 74.0600 937.00 939.74 15.00
1393 74.1100 771.00 773.51 14.00
1394 74.1600 663.00 689.27 11.00
1395 74.2100 662.00 654.14 11.00
1396 74.2600 610.00 641.52 11.00
1397 74.3100 616.00 639.08 11.00
1398 74.3600 627.00 643.80 11.00
1399 74.4100 650.00 655.43 11.00
1400 74.4600 658.00 671.40 11.00
1401 74.5100 671.00 684.35 12.00
1402 74.5600 673.00 684.95 12.00
1403 74.6100 654.00 671.76 11.00
1404 74.6600 664.00 653.23 11.00
1405 74.7100 653.00 637.42 11.00
1406 74.7600 619.00 627.40 11.00
1407 74.8100 614.00 622.34 11.00
1408 74.8600 632.00 620.11 11.00
1409 74.9100 614.00 619.14 11.00
1410 74.9600 618.00 618.64 11.00
1411 75.0100 607.00 618.33 11.00
1412 75.0600 614.00 618.12 11.00
1413 75.1100 596.00 619.54 11.00
1414 75.1600 595.00 619.53 11.00
1415 75.2100 614.00 619.58 11.00
1416 75.2600 614.00 619.66 11.00
1417 75.3100 608.00 619.77 11.00
1418 75.3600 579.00 619.92 11.00
1419 75.4100 613.00 620.10 11.00
1420 75.4600 594.00 620.30 11.00
1421 75.5100 604.00 620.53 12.00
1422 75.5600 626.00 620.79 12.00
1423 75.6100 603.00 621.07 12.00
1424 75.6600 637.00 621.38 13.00
1425 75.7100 611.00 621.72 12.00
1426 75.7600 618.00 622.09 12.00
1427 75.8100 619.00 622.50 12.00
1428 75.8600 622.00 622.95 12.00
1429 75.9100 607.00 622.57 12.00
1430 75.9600 607.00 623.16 12.00
1431 76.0100 635.00 623.79 13.00
1432 76.0600 622.00 624.49 12.00
1433 76.1100 630.00 625.28 13.00
1434 76.1600 626.00 626.15 12.00
1435 76.2100 617.00 627.15 12.00
1436 76.2600 621.00 628.28 12.00
1437 76.3100 625.00 629.60 12.00
1438 76.3600 629.00 631.15 13.00
1439 76.4100 638.00 633.00 13.00
1440 76.4600 602.00 635.23 12.00
1441 76.5100 631.00 637.97 13.00
1442 76.5600 615.00 641.37 11.00
1443 76.6100 622.00 645.84 11.00
1444 76.6600 629.00 651.97 11.00
1445 76.7100 643.00 661.64 11.00
1446 76.7600 674.00 680.85 12.00
1447 76.8100 727.00 726.50 12.00
1448 76.8600 809.00 834.97 13.00
1449 76.9100 1048.00 1058.66 14.00
1450 76.9600 1453.00 1429.41 17.00
1451 77.0100 1903.00 1901.66 19.00
1452 77.0600 2279.00 2281.61 21.00
1453 77.1100 2333.00 2340.09 22.00
1454 77.1600 2029.00 2032.12 20.00
1455 77.2100 1589.00 1568.67 18.00
1456 77.2600 1154.00 1160.88 15.00
1457 77.3100 847.00 896.80 13.00
1458 77.3600 724.00 762.01 12.00
1459 77.4100 677.00 704.33 12.00
1460 77.4600 685.00 681.28 12.00
1461 77.5100 657.00 671.12 11.00
1462 77.5600 676.00 665.64 12.00
1463 77.6100 643.00 662.45 11.00
1464 77.6600 653.00 660.35 11.00
1465 77.7100 644.00 659.16 11.00
1466 77.7600 636.00 658.69 11.00
1467 77.8100 629.00 658.83 11.00
1468 77.8600 622.00 659.51 11.00
1469 77.9100 658.00 660.70 13.00
1470 77.9600 663.00 662.40 13.00
1471 78.0100 679.00 664.63 13.00
1472 78.0600 634.00 667.43 13.00
1473 78.1100 670.00 670.91 13.00
1474 78.1600 680.00 675.16 13.00
1475 78.2100 666.00 680.35 13.00
1476 78.2600 685.00 686.71 13.00
1477 78.3100 676.00 694.55 13.00
1478 78.3600 669.00 704.31 13.00
1479 78.4100 695.00 716.61 13.00
1480 78.4600 712.00 732.37 13.00
1481 78.5100 731.00 753.18 13.00
1482 78.5600 732.00 782.55 14.00
1483 78.6100 780.00 830.92 14.00
1484 78.6600 866.00 930.81 15.00
1485 78.7100 1067.00 1168.79 16.00
1486 78.7600 1614.00 1719.37 20.00
1487 78.8100 2747.00 2813.17 26.00
1488 78.8600 4539.00 4558.52 34.00
1489 78.9100 6538.00 6665.49 40.00
1490 78.9600 8041.00 8299.15 40.00
1491 79.0100 8429.00 8438.74 41.00
1492 79.0600 7264.00 6977.52 38.00
1493 79.1100 5202.00 4874.77 32.00
1494 79.1600 3188.00 3041.55 25.00
1495 79.2100 1862.00 1849.00 19.00
1496 79.2600 1165.00 1231.96 15.00
1497 79.3100 959.00 963.95 14.00
1498 79.3600 886.00 859.73 13.00
1499 79.4100 838.00 825.91 13.00
1500 79.4600 854.00 829.39 13.00
1501 79.5100 911.00 856.96 13.00
1502 79.5600 971.00 891.66 14.00
1503 79.6100 956.00 906.92 14.00
1504 79.6600 926.00 882.40 14.00
1505 79.7100 860.00 828.15 13.00
1506 79.7600 795.00 769.85 13.00
1507 79.8100 731.00 724.61 12.00
1508 79.8600 696.00 696.48 12.00
1509 79.9100 688.00 681.28 12.00
1510 79.9600 672.00 673.27 12.00
1511 80.0100 658.00 668.52 11.00
1512 80.0600 673.00 677.48 12.00
1513 80.1100 666.00 675.48 12.00
1514 80.1600 633.00 673.97 11.00
1515 80.2100 631.00 672.86 11.00
1516 80.2600 646.00 672.09 11.00
1517 80.3100 655.00 671.60 13.00
1518 80.3600 679.00 671.36 13.00
1519 80.4100 656.00 671.37 13.00
1520 80.4600 667.00 671.59 13.00
1521 80.5100 674.00 672.03 13.00
1522 80.5600 644.00 672.68 13.00
1523 80.6100 667.00 673.54 13.00
1524 80.6600 672.00 674.63 13.00
1525 80.7100 632.00 675.95 13.00
1526 80.7600 660.00 677.52 13.00
1527 80.8100 666.00 679.35 13.00
1528 80.8600 677.00 681.49 13.00
1529 80.9100 667.00 683.97 13.00
1530 80.9600 682.00 686.84 13.00
1531 81.0100 649.00 690.15 13.00
1532 81.0600 669.00 687.15 13.00
1533 81.1100 680.00 691.91 13.00
1534 81.1600 683.00 697.38 13.00
1535 81.2100 701.00 703.72 13.00
1536 81.2600 704.00 711.12 13.00
1537 81.3100 704.00 719.84 13.00
1538 81.3600 693.00 730.22 12.00
1539 81.4100 704.00 742.71 12.00
1540 81.4600 757.00 757.94 12.00
1541 81.5100 785.00 776.76 13.00
1542 81.5600 790.00 800.44 13.00
1543 81.6100 813.00 830.92 13.00
1544 81.6600 858.00 872.06 13.00
1545 81.7100 899.00 933.81 13.00
1546 81.7600 975.00 1047.27 14.00
1547 81.8100 1201.00 1298.44 15.00
1548 81.8600 1800.00 1883.79 19.00
1549 81.9100 3119.00 3119.14 25.00
1550 81.9600 5532.00 5315.67 33.00
1551 82.0100 8686.00 8434.93 42.00
1552 82.0600 11709.00 11731.30 48.00
1553 82.1100 13416.00 13730.20 52.00
1554 82.1600 12774.00 13133.40 51.00
1555 82.2100 10374.00 10365.80 46.00
1556 82.2600 7005.00 7001.74 37.00
1557 82.3100 4155.00 4238.35 29.00
1558 82.3600 2315.00 2484.07 22.00
1559 82.4100 1494.00 1576.30 17.00
1560 82.4600 1124.00 1170.87 15.00
1561 82.5100 1023.00 996.52 14.00
1562 82.5600 962.00 912.46 14.00
1563 82.6100 897.00 862.44 13.00
1564 82.6600 875.00 827.49 13.00
1565 82.7100 872.00 801.20 15.00
1566 82.7600 848.00 780.78 15.00
1567 82.8100 839.00 764.67 14.00
1568 82.8600 786.00 751.83 14.00
1569 82.9100 795.00 741.50 14.00
1570 82.9600 767.00 733.18 14.00
1571 83.0100 774.00 726.48 14.00
1572 83.0600 738.00 721.13 14.00
1573 83.1100 736.00 716.93 14.00
1574 83.1600 743.00 713.75 14.00
1575 83.2100 750.00 711.50 14.00
1576 83.2600 729.00 710.15 13.00
1577 83.3100 743.00 709.71 14.00
1578 83.3600 695.00 710.25 13.00
1579 83.4100 724.00 711.92 13.00
1580 83.4600 703.00 714.96 13.00
1581 83.5100 751.00 719.92 14.00
1582 83.5600 732.00 728.18 14.00
1583 83.6100 763.00 743.89 14.00
1584 83.6600 787.00 778.77 14.00
1585 83.7100 851.00 859.98 15.00
1586 83.7600 1025.00 1035.33 14.00
1587 83.8100 1350.00 1359.34 16.00
1588 83.8600 1846.00 1848.05 19.00
1589 83.9100 2398.00 2420.13 22.00
1590 83.9600 2867.00 2870.19 24.00
1591 84.0100 2879.00 2946.76 24.00
1592 84.0600 2634.00 2597.26 23.00
1593 84.1100 2113.00 2037.91 21.00
1594 84.1600 1540.00 1506.73 18.00
1595 84.2100 1123.00 1127.33 15.00
1596 84.2600 877.00 899.93 13.00
1597 84.3100 788.00 803.35 13.00
1598 84.3600 784.00 779.33 12.00
1599 84.4100 795.00 803.22 13.00
1600 84.4600 841.00 865.58 13.00
1601 84.5100 922.00 954.27 14.00
1602 84.5600 997.00 1040.88 14.00
1603 84.6100 1038.00 1081.73 14.00
1604 84.6600 1023.00 1047.68 14.00
1605 84.7100 946.00 959.01 14.00
1606 84.7600 849.00 859.16 13.00
1607 84.8100 753.00 778.56 12.00
1608 84.8600 726.00 726.95 12.00
1609 84.9100 720.00 699.29 12.00
1610 84.9600 682.00 686.17 12.00
1611 85.0100 672.00 680.04 12.00
1612 85.0600 654.00 676.82 11.00
1613 85.1100 662.00 674.77 13.00
1614 85.1600 684.00 673.29 13.00
1615 85.2100 656.00 672.14 13.00
1616 85.2600 659.00 671.24 13.00
1617 85.3100 662.00 670.52 13.00
1618 85.3600 669.00 669.95 13.00
1619 85.4100 670.00 669.49 13.00
1620 85.4600 657.00 669.12 13.00
1621 85.5100 684.00 668.83 13.00
1622 85.5600 656.00 668.61 13.00
1623 85.6100 631.00 668.44 13.00
1624 85.6600 646.00 668.32 13.00
1625 85.7100 660.00 668.23 13.00
1626 85.7600 650.00 668.19 13.00
1627 85.8100 654.00 668.17 13.00
1628 85.8600 670.00 668.18 13.00
1629 85.9100 663.00 668.21 13.00
1630 85.9600 643.00 668.27 13.00
1631 86.0100 665.00 668.34 13.00
1632 86.0600 669.00 668.44 13.00
1633 86.1100 650.00 668.55 13.00
1634 86.1600 659.00 668.69 11.00
1635 86.2100 657.00 666.89 11.00
1636 86.2600 670.00 667.14 12.00
1637 86.3100 681.00 667.41 12.00
1638 86.3600 641.00 667.70 11.00
1639 86.4100 647.00 668.02 11.00
1640 86.4600 653.00 668.36 11.00
1641 86.5100 677.00 668.73 12.00
1642 86.5600 658.00 669.17 11.00
1643 86.6100 653.00 677.25 11.00
1644 86.6600 670.00 678.26 12.00
1645 86.7100 698.00 679.69 12.00
1646 86.7600 670.00 682.14 12.00
1647 86.8100 670.00 686.47 12.00
1648 86.8600 696.00 695.31 12.00
1649 86.9100 724.00 710.16 12.00
1650 86.9600 706.00 731.18 12.00
1651 87.0100 755.00 754.91 12.00
1652 87.0600 775.00 773.63 12.00
1653 87.1100 780.00 778.14 12.00
1654 87.1600 762.00 766.14 12.00
1655 87.2100 749.00 745.10 12.00
1656 87.2600 732.00 724.05 12.00
1657 87.3100 705.00 708.27 12.00
1658 87.3600 700.00 698.96 12.00
1659 87.4100 692.00 694.72 12.00
1660 87.4600 686.00 693.52 12.00
1661 87.5100 680.00 693.84 13.00
1662 87.5600 694.00 694.90 13.00
1663 87.6100 700.00 696.34 13.00
1664 87.6600 696.00 698.09 13.00
1665 87.7100 687.00 700.10 13.00
1666 87.7600 692.00 702.41 13.00
1667 87.8100 707.00 705.04 13.00
1668 87.8600 730.00 708.04 13.00
1669 87.9100 748.00 711.47 14.00
1670 87.9600 723.00 715.41 13.00
1671 88.0100 755.00 719.97 14.00
1672 88.0600 762.00 725.27 14.00
1673 88.1100 770.00 731.48 14.00
1674 88.1600 757.00 738.83 14.00
1675 88.2100 782.00 747.61 14.00
1676 88.2600 797.00 758.21 14.00
1677 88.3100 794.00 771.20 14.00
1678 88.3600 797.00 787.37 14.00
1679 88.4100 803.00 808.15 14.00
1680 88.4600 849.00 836.60 15.00
1681 88.5100 908.00 880.93 15.00
1682 88.5600 946.00 963.23 14.00
1683 88.6100 1081.00 1136.37 15.00
1684 88.6600 1399.00 1504.23 17.00
1685 88.7100 2153.00 2221.46 21.00
1686 88.7600 3452.00 3435.48 26.00
1687 88.8100 5158.00 5157.09 32.00
1688 88.8600 6973.00 7116.95 37.00
1689 88.9100 8440.00 8715.90 41.00
1690 88.9600 8934.00 9206.51 42.00
1691 89.0100 8314.00 8299.82 41.00
1692 89.0600 6749.00 6506.30 37.00
1693 89.1100 4701.00 4572.42 31.00
1694 89.1600 3019.00 2997.09 25.00
1695 89.2100 1902.00 1950.25 19.00
1696 89.2600 1317.00 1361.34 16.00
1697 89.3100 1069.00 1069.78 15.00
1698 89.3600 966.00 934.03 14.00
1699 89.4100 913.00 867.78 13.00
1700 89.4600 916.00 830.29 14.00
1701 89.5100 893.00 805.15 13.00
1702 89.5600 828.00 803.08 13.00
1703 89.6100 823.00 789.08 13.00
1704 89.6600 831.00 778.02 13.00
1705 89.7100 804.00 769.18 13.00
1706 89.7600 788.00 762.08 13.00
1707 89.8100 766.00 756.36 12.00
1708 89.8600 770.00 751.75 12.00
1709 89.9100 766.00 748.06 14.00
1710 89.9600 769.00 745.12 14.00
1711 90.0100 789.00 742.84 14.00
1712 90.0600 762.00 741.11 14.00
1713 90.1100 739.00 739.87 14.00
1714 90.1600 753.00 739.07 14.00
1715 90.2100 770.00 738.66 14.00
1716 90.2600 754.00 738.63 14.00
1717 90.3100 784.00 738.96 14.00
1718 90.3600 761.00 739.62 14.00
1719 90.4100 735.00 740.63 14.00
1720 90.4600 761.00 741.98 14.00
1721 90.5100 773.00 743.68 14.00
1722 90.5600 751.00 745.76 14.00
1723 90.6100 760.00 748.23 14.00
1724 90.6600 761.00 751.14 14.00
1725 90.7100 763.00 754.52 14.00
1726 90.7600 806.00 758.42 14.00
1727 90.8100 758.00 762.93 14.00
1728 90.8600 778.00 768.12 14.00
1729 90.9100 804.00 774.11 14.00
1730 90.9600 802.00 781.00 13.00
1731 91.0100 805.00 788.99 13.00
1732 91.0600 852.00 798.26 13.00
1733 91.1100 839.00 809.08 13.00
1734 91.1600 862.00 821.78 13.00
1735 91.2100 882.00 836.79 13.00
1736 91.2600 883.00 854.68 13.00
1737 91.3100 920.00 877.23 14.00
1738 91.3600 913.00 896.25 13.00
1739 91.4100 950.00 928.83 14.00
1740 91.4600 1000.00 969.94 14.00
1741 91.5100 1022.00 1024.61 14.00
1742 91.5600 1099.00 1105.23 15.00
1743 91.6100 1210.00 1243.77 16.00
1744 91.6600 1447.00 1516.39 17.00
1745 91.7100 1994.00 2077.55 20.00
1746 91.7600 3237.00 3180.54 25.00
1747 91.8100 5392.00 5130.65 33.00
1748 91.8600 8649.00 8124.61 42.00
1749 91.9100 12685.00 12007.40 50.00
1750 91.9600 16513.00 16070.70 57.00
1751 92.0100 18803.00 19064.20 61.00
1752 92.0600 19129.00 19654.00 62.00
1753 92.1100 17491.00 17525.30 59.00
1754 92.1600 14015.00 13729.70 53.00
1755 92.2100 9759.00 9652.63 44.00
1756 92.2600 6087.00 6243.95 35.00
1757 92.3100 3629.00 3871.58 30.00
1758 92.3600 2216.00 2454.38 24.00
1759 92.4100 1597.00 1705.21 20.00
1760 92.4600 1367.00 1338.05 18.00
1761 92.5100 1240.00 1157.46 18.00
1762 92.5600 1164.00 1059.16 17.00
1763 92.6100 1107.00 996.62 17.00
1764 92.6600 1050.00 951.42 16.00
1765 92.7100 1031.00 916.40 16.00
1766 92.7600 991.00 888.35 16.00
1767 92.8100 935.00 865.52 15.00
1768 92.8600 919.00 846.74 15.00
1769 92.9100 905.00 831.17 15.00
1770 92.9600 892.00 818.21 15.00
1771 93.0100 911.00 807.38 15.00
1772 93.0600 896.00 798.35 15.00
1773 93.1100 876.00 790.86 15.00
1774 93.1600 853.00 784.73 15.00
1775 93.2100 866.00 779.85 15.00
1776 93.2600 828.00 776.17 14.00
1777 93.3100 833.00 773.73 14.00
1778 93.3600 812.00 772.82 13.00
1779 93.4100 818.00 774.28 13.00
1780 93.4600 807.00 780.32 13.00
1781 93.5100 828.00 795.99 13.00
1782 93.5600 843.00 831.00 13.00
1783 93.6100 922.00 900.43 14.00
1784 93.6600 1046.00 1021.67 14.00
1785 93.7100 1220.00 1205.29 16.00
1786 93.7600 1494.00 1442.07 17.00
1787 93.8100 1719.00 1692.49 19.00
1788 93.8600 1915.00 1886.65 20.00
1789 93.9100 1915.00 1946.42 20.00
1790 93.9600 1870.00 1841.61 19.00
1791 94.0100 1634.00 1621.29 18.00
1792 94.0600 1349.00 1365.71 16.00
1793 94.1100 1144.00 1137.49 15.00
1794 94.1600 948.00 967.40 14.00
1795 94.2100 850.00 859.10 13.00
1796 94.2600 777.00 796.98 12.00
1797 94.3100 767.00 764.58 12.00
1798 94.3600 737.00 748.11 12.00
1799 94.4100 765.00 739.20 12.00
1800 94.4600 740.00 733.68 12.00
1801 94.5100 753.00 729.75 12.00
1802 94.5600 725.00 710.40 12.00
1803 94.6100 719.00 708.51 12.00
1804 94.6600 702.00 707.00 12.00
1805 94.7100 727.00 705.77 13.00
1806 94.7600 716.00 704.76 13.00
1807 94.8100 732.00 703.93 14.00
1808 94.8600 727.00 703.25 13.00
1809 94.9100 755.00 702.69 14.00
1810 94.9600 718.00 702.23 13.00
1811 95.0100 698.00 701.85 13.00
1812 95.0600 733.00 701.55 14.00
1813 95.1100 718.00 701.30 13.00
1814 95.1600 702.00 701.11 13.00
1815 95.2100 731.00 700.97 13.00
1816 95.2600 694.00 700.88 13.00
1817 95.3100 697.00 700.83 13.00
1818 95.3600 739.00 700.81 14.00
1819 95.4100 705.00 700.83 13.00
1820 95.4600 714.00 700.88 13.00
1821 95.5100 754.00 700.98 14.00
1822 95.5600 712.00 701.10 13.00
1823 95.6100 719.00 701.27 13.00
1824 95.6600 708.00 701.47 13.00
1825 95.7100 725.00 701.72 13.00
1826 95.7600 707.00 702.02 12.00
1827 95.8100 689.00 702.37 12.00
1828 95.8600 701.00 702.77 12.00
1829 95.9100 723.00 703.25 12.00
1830 95.9600 702.00 712.29 12.00
1831 96.0100 706.00 713.23 12.00
1832 96.0600 703.00 714.30 12.00
1833 96.1100 696.00 715.52 12.00
1834 96.1600 720.00 716.92 12.00
1835 96.2100 691.00 718.54 12.00
1836 96.2600 712.00 720.44 12.00
1837 96.3100 737.00 722.68 12.00
1838 96.3600 739.00 725.40 12.00
1839 96.4100 708.00 728.83 12.00
1840 96.4600 743.00 733.56 12.00
1841 96.5100 734.00 740.90 12.00
1842 96.5600 741.00 752.84 12.00
1843 96.6100 771.00 777.22 12.00
1844 96.6600 810.00 822.82 13.00
1845 96.7100 896.00 903.05 13.00
1846 96.7600 1050.00 1031.25 14.00
1847 96.8100 1257.00 1213.15 16.00
1848 96.8600 1476.00 1437.53 17.00
1849 96.9100 1690.00 1670.03 18.00
1850 96.9600 1799.00 1853.97 19.00
1851 97.0100 1864.00 1926.41 19.00
1852 97.0600 1798.00 1856.93 19.00
1853 97.1100 1713.00 1675.63 21.00
1854 97.1600 1435.00 1445.48 19.00
1855 97.2100 1260.00 1223.25 18.00
1856 97.2600 1021.00 1043.44 16.00
1857 97.3100 924.00 917.42 15.00
1858 97.3600 835.00 839.55 14.00
1859 97.4100 764.00 796.53 14.00
1860 97.4600 791.00 774.98 14.00
1861 97.5100 776.00 765.10 14.00
1862 97.5600 774.00 761.09 14.00
1863 97.6100 771.00 760.01 14.00
1864 97.6600 788.00 760.58 14.00
1865 97.7100 777.00 762.30 14.00
1866 97.7600 785.00 765.00 14.00
1867 97.8100 793.00 768.65 14.00
1868 97.8600 809.00 773.29 14.00
1869 97.9100 775.00 779.03 14.00
1870 97.9600 778.00 786.01 14.00
1871 98.0100 794.00 794.45 14.00
1872 98.0600 820.00 804.63 14.00
1873 98.1100 816.00 816.94 14.00
1874 98.1600 847.00 832.00 15.00
1875 98.2100 857.00 850.80 13.00
1876 98.2600 880.00 875.41 13.00
1877 98.3100 886.00 910.41 13.00
1878 98.3600 961.00 966.27 14.00
1879 98.4100 1028.00 1065.48 14.00
1880 98.4600 1158.00 1251.14 15.00
1881 98.5100 1479.00 1595.06 17.00
1882 98.5600 2091.00 2196.15 20.00
1883 98.6100 3180.00 3158.75 25.00
1884 98.6600 4737.00 4544.21 31.00
1885 98.7100 6549.00 6305.72 36.00
1886 98.7600 8357.00 8237.43 41.00
1887 98.8100 9787.00 9962.38 44.00
1888 98.8600 10669.00 10997.70 46.00
1889 98.9100 10623.00 10966.30 46.00
1890 98.9600 9697.00 9880.86 44.00
1891 99.0100 8159.00 8132.44 40.00
1892 99.0600 6266.00 6201.74 35.00
1893 99.1100 4403.00 4457.15 30.00
1894 99.1600 2914.00 3095.08 24.00
1895 99.2100 1957.00 2155.10 20.00
1896 99.2600 1391.00 1571.68 17.00
1897 99.3100 1155.00 1240.10 15.00
1898 99.3600 1044.00 1062.39 14.00
1899 99.4100 972.00 968.07 14.00
1900 99.4600 954.00 914.91 14.00
1901 99.5100 931.00 880.77 15.00
1902 99.5600 906.00 855.38 15.00
1903 99.6100 876.00 834.58 15.00
1904 99.6600 841.00 816.89 14.00
1905 99.7100 844.00 801.83 15.00
1906 99.7600 832.00 789.10 14.00
1907 99.8100 809.00 778.46 14.00
1908 99.8600 825.00 768.61 14.00
1909 99.9100 797.00 761.19 14.00
1910 99.9600 778.00 754.90 14.00
1911 100.0100 770.00 749.48 14.00
1912 100.0600 758.00 744.77 14.00
1913 100.1100 747.00 740.62 14.00
1914 100.1600 735.00 736.93 14.00
1915 100.2100 742.00 733.64 14.00
1916 100.2600 735.00 730.68 14.00
1917 100.3100 728.00 728.01 13.00
1918 100.3600 730.00 725.59 13.00
1919 100.4100 726.00 723.39 13.00
1920 100.4600 737.00 721.39 14.00
1921 100.5100 722.00 719.55 13.00
1922 100.5600 702.00 717.86 12.00
1923 100.6100 712.00 717.91 12.00
1924 100.6600 710.00 716.53 12.00
1925 100.7100 711.00 715.25 12.00
1926 100.7600 702.00 714.06 12.00
1927 100.8100 731.00 712.97 12.00
1928 100.8600 687.00 711.95 12.00
1929 100.9100 707.00 711.00 12.00
1930 100.9600 698.00 710.12 12.00
1931 101.0100 706.00 709.30 12.00
1932 101.0600 676.00 708.53 12.00
1933 101.1100 698.00 707.82 12.00
1934 101.1600 681.00 707.15 12.00
1935 101.2100 680.00 706.66 12.00
1936 101.2600 692.00 706.08 12.00
1937 101.3100 688.00 705.53 12.00
1938 101.3600 690.00 705.03 12.00
1939 101.4100 694.00 704.55 12.00
1940 101.4600 663.00 704.10 11.00
1941 101.5100 651.00 703.69 11.00
1942 101.5600 677.00 703.30 12.00
1943 101.6100 664.00 702.95 11.00
1944 101.6600 682.00 702.61 12.00
1945 101.7100 690.00 702.31 12.00
1946 101.7600 666.00 702.04 12.00
1947 101.8100 648.00 701.79 11.00
1948 101.8600 666.00 693.38 12.00
1949 101.9100 689.00 693.45 13.00
1950 101.9600 670.00 693.53 13.00
1951 102.0100 685.00 693.64 13.00
1952 102.0600 680.00 693.76 13.00
1953 102.1100 671.00 693.89 13.00
1954 102.1600 649.00 694.06 13.00
1955 102.2100 646.00 694.24 13.00
1956 102.2600 647.00 694.46 13.00
1957 102.3100 688.00 694.71 13.00
1958 102.3600 689.00 694.99 13.00
1959 102.4100 678.00 695.32 13.00
1960 102.4600 679.00 695.69 13.00
1961 102.5100 674.00 696.10 13.00
1962 102.5600 689.00 696.59 13.00
1963 102.6100 695.00 697.15 13.00
1964 102.6600 681.00 697.78 13.00
1965 102.7100 676.00 698.51 13.00
1966 102.7600 677.00 699.35 13.00
1967 102.8100 675.00 700.32 13.00
1968 102.8600 646.00 701.45 13.00
1969 102.9100 703.00 702.75 13.00
1970 102.9600 680.00 704.26 12.00
1971 103.0100 681.00 706.04 12.00
1972 103.0600 681.00 708.14 12.00
1973 103.1100 705.00 710.65 12.00
1974 103.1600 691.00 713.70 12.00
1975 103.2100 691.00 717.56 12.00
1976 103.2600 700.00 722.74 12.00
1977 103.3100 704.00 730.34 12.00
1978 103.3600 727.00 742.58 12.00
1979 103.4100 711.00 763.62 12.00
1980 103.4600 764.00 800.58 12.00
1981 103.5100 809.00 864.42 13.00
1982 103.5600 923.00 968.71 14.00
1983 103.6100 1093.00 1128.13 15.00
1984 103.6600 1354.00 1352.78 16.00
1985 103.7100 1694.00 1641.10 18.00
1986 103.7600 2024.00 1973.81 20.00
1987 103.8100 2306.00 2310.55 21.00
1988 103.8600 2588.00 2592.25 23.00
1989 103.9100 2728.00 2752.76 23.00
1990 103.9600 2646.00 2745.52 23.00
1991 104.0100 2543.00 2573.29 23.00
1992 104.0600 2322.00 2286.40 22.00
1993 104.1100 2011.00 1952.02 20.00
1994 104.1600 1637.00 1628.75 18.00
1995 104.2100 1328.00 1356.42 16.00
1996 104.2600 1110.00 1153.64 15.00
1997 104.3100 965.00 1021.24 16.00
1998 104.3600 882.00 948.01 15.00
1999 104.4100 868.00 917.03 15.00
2000 104.4600 870.00 910.60 15.00
2001 104.5100 889.00 912.93 15.00
2002 104.5600 865.00 911.66 15.00
2003 104.6100 883.00 899.72 15.00
2004 104.6600 855.00 876.34 15.00
2005 104.7100 803.00 845.31 14.00
2006 104.7600 829.00 811.83 14.00
2007 104.8100 748.00 780.31 14.00
2008 104.8600 741.00 753.65 14.00
2009 104.9100 721.00 733.00 13.00
2010 104.9600 708.00 718.16 13.00
2011 105.0100 696.00 708.11 13.00
2012 105.0600 675.00 701.54 13.00
2013 105.1100 680.00 697.26 13.00
2014 105.1600 697.00 694.39 13.00
2015 105.2100 692.00 692.34 13.00
2016 105.2600 668.00 691.13 13.00
2017 105.3100 675.00 689.83 13.00
2018 105.3600 661.00 688.71 11.00
2019 105.4100 662.00 687.72 11.00
2020 105.4600 674.00 686.84 12.00
2021 105.5100 677.00 686.04 12.00
2022 105.5600 704.00 685.32 12.00
2023 105.6100 689.00 684.66 12.00
2024 105.6600 681.00 684.05 12.00
2025 105.7100 655.00 683.50 11.00
2026 105.7600 675.00 683.00 12.00
2027 105.8100 684.00 682.54 12.00
2028 105.8600 671.00 682.12 12.00
2029 105.9100 674.00 681.74 12.00
2030 105.9600 659.00 681.41 11.00
2031 106.0100 668.00 681.11 12.00
2032 106.0600 673.00 680.86 12.00
2033 106.1100 670.00 680.65 12.00
2034 106.1600 680.00 680.48 12.00
2035 106.2100 682.00 680.37 12.00
2036 106.2600 671.00 680.32 12.00
2037 106.3100 674.00 680.34 12.00
2038 106.3600 663.00 680.47 11.00
2039 106.4100 691.00 680.76 12.00
2040 106.4600 697.00 681.32 12.00
2041 106.5100 678.00 682.38 12.00
2042 106.5600 657.00 684.31 11.00
2043 106.6100 657.00 687.78 11.00
2044 106.6600 687.00 693.77 12.00
2045 106.7100 686.00 703.62 13.00
2046 106.7600 709.00 718.86 13.00
2047 106.8100 747.00 740.85 14.00
2048 106.8600 757.00 770.26 14.00
2049 106.9100 825.00 806.47 14.00
2050 106.9600 840.00 847.01 14.00
2051 107.0100 894.00 887.44 15.00
2052 107.0600 909.00 921.61 15.00
2053 107.1100 915.00 942.72 15.00
2054 107.1600 917.00 945.59 15.00
2055 107.2100 908.00 929.41 15.00
2056 107.2600 887.00 898.24 15.00
2057 107.3100 871.00 857.10 15.00
2058 107.3600 833.00 815.67 14.00
2059 107.4100 798.00 777.38 14.00
2060 107.4600 732.00 745.31 14.00
2061 107.5100 714.00 720.64 13.00
2062 107.5600 694.00 703.04 13.00
2063 107.6100 690.00 691.29 13.00
2064 107.6600 688.00 683.89 13.00
2065 107.7100 675.00 679.41 13.00
2066 107.7600 661.00 676.76 11.00
2067 107.8100 673.00 675.17 12.00
2068 107.8600 667.00 674.20 12.00
2069 107.9100 681.00 673.58 12.00
2070 107.9600 674.00 673.03 12.00
2071 108.0100 661.00 672.78 11.00
2072 108.0600 692.00 672.66 12.00
2073 108.1100 674.00 672.65 12.00
2074 108.1600 658.00 672.76 11.00
2075 108.2100 692.00 676.20 12.00
2076 108.2600 681.00 676.71 12.00
2077 108.3100 661.00 677.47 11.00
2078 108.3600 676.00 678.65 12.00
2079 108.4100 671.00 680.55 12.00
2080 108.4600 669.00 683.70 12.00
2081 108.5100 672.00 689.02 12.00
2082 108.5600 701.00 697.91 12.00
2083 108.6100 699.00 712.34 12.00
2084 108.6600 718.00 734.71 12.00
2085 108.7100 773.00 767.57 12.00
2086 108.7600 816.00 812.90 13.00
2087 108.8100 870.00 871.22 13.00
2088 108.8600 984.00 940.72 14.00
2089 108.9100 1052.00 1016.57 14.00
2090 108.9600 1080.00 1090.79 15.00
2091 109.0100 1128.00 1152.92 15.00
2092 109.0600 1178.00 1191.66 15.00
2093 109.1100 1165.00 1198.51 15.00
2094 109.1600 1154.00 1171.82 17.00
2095 109.2100 1125.00 1117.74 17.00
2096 109.2600 1071.00 1046.94 16.00
2097 109.3100 970.00 970.50 16.00
2098 109.3600 927.00 897.53 15.00
2099 109.4100 850.00 834.14 15.00
2100 109.4600 772.00 783.34 14.00
2101 109.5100 745.00 745.43 14.00
2102 109.5600 708.00 718.92 13.00
2103 109.6100 704.00 701.42 13.00
2104 109.6600 680.00 690.39 13.00
2105 109.7100 685.00 683.66 13.00
2106 109.7600 679.00 679.61 13.00
2107 109.8100 673.00 677.15 13.00
2108 109.8600 683.00 675.58 13.00
2109 109.9100 695.00 674.53 13.00
2110 109.9600 680.00 673.80 13.00
2111 110.0100 669.00 674.98 13.00
2112 110.0600 676.00 674.64 13.00
2113 110.1100 662.00 674.41 13.00
2114 110.1600 685.00 674.28 12.00
2115 110.2100 677.00 674.25 12.00
2116 110.2600 688.00 674.31 12.00
2117 110.3100 715.00 674.45 12.00
2118 110.3600 697.00 674.67 12.00
2119 110.4100 689.00 674.96 12.00
2120 110.4600 691.00 675.34 12.00
2121 110.5100 687.00 675.80 12.00
2122 110.5600 681.00 676.35 12.00
2123 110.6100 697.00 677.18 12.00
2124 110.6600 676.00 677.92 12.00
2125 110.7100 674.00 678.76 12.00
2126 110.7600 688.00 679.71 12.00
2127 110.8100 712.00 680.59 12.00
2128 110.8600 672.00 681.81 12.00
2129 110.9100 703.00 683.17 12.00
2130 110.9600 682.00 684.70 12.00
2131 111.0100 689.00 686.42 12.00
2132 111.0600 692.00 688.36 12.00
2133 111.1100 696.00 690.53 12.00
2134 111.1600 702.00 692.98 12.00
2135 111.2100 703.00 695.76 12.00
2136 111.2600 695.00 698.90 12.00
2137 111.3100 698.00 702.49 12.00
2138 111.3600 710.00 706.61 12.00
2139 111.4100 679.00 711.41 12.00
2140 111.4600 716.00 717.10 12.00
2141 111.5100 733.00 724.09 14.00
2142 111.5600 740.00 733.09 14.00
2143 111.6100 747.00 745.43 14.00
2144 111.6600 790.00 763.43 14.00
2145 111.7100 769.00 791.01 14.00
2146 111.7600 837.00 834.45 14.00
2147 111.8100 878.00 903.03 15.00
2148 111.8600 987.00 1009.44 16.00
2149 111.9100 1116.00 1169.35 17.00
2150 111.9600 1309.00 1399.69 18.00
2151 112.0100 1673.00 1715.52 20.00
2152 112.0600 2128.00 2125.26 23.00
2153 112.1100 2607.00 2625.37 26.00
2154 112.1600 3272.00 3196.34 29.00
2155 112.2100 3872.00 3799.28 31.00
2156 112.2600 4351.00 4377.29 33.00
2157 112.3100 4789.00 4859.36 35.00
2158 112.3600 5049.00 5171.57 36.00
2159 112.4100 5113.00 5257.10 36.00
2160 112.4600 5042.00 5099.13 35.00
2161 112.5100 4891.00 4728.78 35.00
2162 112.5600 4531.00 4210.61 34.00
2163 112.6100 3999.00 3619.18 32.00
2164 112.6600 3444.00 3021.72 29.00
2165 112.7100 2786.00 2470.18 26.00
2166 112.7600 2149.00 1997.09 23.00
2167 112.8100 1695.00 1617.05 21.00
2168 112.8600 1292.00 1329.36 18.00
2169 112.9100 1051.00 1122.99 16.00
2170 112.9600 939.00 981.64 15.00
2171 113.0100 884.00 889.57 15.00
2172 113.0600 845.00 830.94 15.00
2173 113.1100 838.00 794.44 14.00
2174 113.1600 812.00 771.77 14.00
2175 113.2100 781.00 757.47 14.00
2176 113.2600 806.00 748.20 14.00
2177 113.3100 790.00 742.03 14.00
2178 113.3600 785.00 737.92 14.00
2179 113.4100 793.00 735.35 14.00
2180 113.4600 751.00 734.14 14.00
2181 113.5100 763.00 734.36 14.00
2182 113.5600 782.00 736.36 14.00
2183 113.6100 805.00 740.88 14.00
2184 113.6600 794.00 749.26 14.00
2185 113.7100 806.00 763.65 14.00
2186 113.7600 784.00 787.41 14.00
2187 113.8100 813.00 825.29 14.00
2188 113.8600 886.00 883.55 15.00
2189 113.9100 958.00 969.65 18.00
2190 113.9600 1143.00 1091.40 20.00
2191 114.0100 1310.00 1255.60 21.00
2192 114.0600 1569.00 1466.04 23.00
2193 114.1100 1846.00 1721.19 25.00
2194 114.1600 2062.00 2012.53 26.00
2195 114.2100 2399.00 2323.15 28.00
2196 114.2600 2728.00 2628.16 30.00
2197 114.3100 2902.00 2895.96 31.00
2198 114.3600 3066.00 3092.19 32.00
2199 114.4100 3137.00 3187.04 32.00
2200 114.4600 3174.00 3164.78 33.00
2201 114.5100 3081.00 3030.72 32.00
2202 114.5600 2845.00 2808.98 31.00
2203 114.6100 2745.00 2533.55 30.00
2204 114.6600 2455.00 2239.09 29.00
2205 114.7100 2109.00 1955.31 27.00
2206 114.7600 1839.00 1703.92 25.00
2207 114.8100 1599.00 1498.90 23.00
2208 114.8600 1380.00 1341.96 21.00
2209 114.9100 1271.00 1230.89 21.00
2210 114.9600 1135.00 1157.25 19.00
2211 115.0100 1097.00 1109.90 19.00
2212 115.0600 1005.00 1077.33 18.00
2213 115.1100 1062.00 1049.66 19.00
2214 115.1600 1051.00 1020.32 19.00
2215 115.2100 1027.00 986.50 18.00
2216 115.2600 988.00 948.39 18.00
2217 115.3100 967.00 907.93 18.00
2218 115.3600 889.00 867.62 17.00
2219 115.4100 870.00 829.80 17.00
2220 115.4600 835.00 796.21 17.00
2221 115.5100 762.00 767.87 16.00
2222 115.5600 768.00 745.09 16.00
2223 115.6100 717.00 727.55 15.00
2224 115.6600 740.00 714.55 16.00
2225 115.7100 749.00 705.22 16.00
2226 115.7600 747.00 698.68 16.00
2227 115.8100 708.00 694.15 15.00
2228 115.8600 746.00 691.01 16.00
2229 115.9100 723.00 688.80 16.00
2230 115.9600 681.00 687.21 15.00
2231 116.0100 689.00 686.03 15.00
2232 116.0600 713.00 685.14 15.00
2233 116.1100 731.00 684.44 16.00
2234 116.1600 685.00 683.91 15.00
2235 116.2100 689.00 683.50 15.00
2236 116.2600 711.00 683.21 15.00
2237 116.3100 649.00 683.02 18.00
2238 116.3600 680.00 682.92 18.00
2239 116.4100 689.00 682.91 19.00
2240 116.4600 676.00 682.99 18.00
2241 116.5100 696.00 683.15 19.00
2242 116.5600 703.00 683.39 19.00
2243 116.6100 719.00 680.55 19.00
2244 116.6600 704.00 681.03 19.00
2245 116.7100 703.00 681.60 19.00
2246 116.7600 693.00 682.28 19.00
2247 116.8100 691.00 683.08 19.00
2248 116.8600 665.00 684.04 18.00
2249 116.9100 689.00 685.24 19.00
2250 116.9600 668.00 686.77 18.00
2251 117.0100 665.00 688.82 18.00
2252 117.0600 677.00 691.67 18.00
2253 117.1100 670.00 695.75 18.00
2254 117.1600 672.00 701.64 18.00
2255 117.2100 670.00 710.14 18.00
2256 117.2600 700.00 722.23 19.00
2257 117.3100 701.00 739.02 19.00
2258 117.3600 777.00 761.64 20.00
2259 117.4100 815.00 791.06 20.00
2260 117.4600 832.00 827.82 20.00
2261 117.5100 863.00 871.83 21.00
2262 117.5600 946.00 922.03 22.00
2263 117.6100 991.00 976.34 22.00
2264 117.6600 1035.00 1031.55 23.00
2265 117.7100 1101.00 1083.50 23.00
2266 117.7600 1094.00 1127.37 23.00
2267 117.8100 1121.00 1158.22 24.00
2268 117.8600 1155.00 1174.32 24.00
2269 117.9100 1167.00 1169.39 24.00
2270 117.9600 1158.00 1146.51 24.00
2271 118.0100 1160.00 1108.95 24.00
2272 118.0600 1109.00 1061.41 24.00
2273 118.1100 1041.00 1008.81 23.00
2274 118.1600 972.00 955.61 22.00
2275 118.2100 920.00 905.45 21.00
2276 118.2600 887.00 860.82 21.00
2277 118.3100 842.00 823.17 21.00
2278 118.3600 791.00 792.94 20.00
2279 118.4100 710.00 769.82 19.00
2280 118.4600 717.00 752.98 19.00
2281 118.5100 694.00 741.34 19.00
2282 118.5600 704.00 733.78 19.00
2283 118.6100 681.00 729.27 18.00
2284 118.6600 649.00 726.95 18.00
2285 118.7100 693.00 726.18 26.00
2286 118.7600 733.00 726.51 27.00
2287 118.8100 731.00 727.64 27.00
2288 118.8600 642.00 727.72 25.00
2289 118.9100 705.00 730.19 27.00
2290 118.9600 721.00 733.40 27.00
2291 119.0100 712.00 737.61 27.00
2292 119.0600 724.00 743.29 27.00
2293 119.1100 651.00 751.17 26.00
2294 119.1600 711.00 762.34 27.00
2295 119.2100 711.00 778.36 27.00
2296 119.2600 752.00 801.33 27.00
2297 119.3100 789.00 833.90 28.00
2298 119.3600 825.00 879.22 29.00
2299 119.4100 877.00 940.70 30.00
2300 119.4600 965.00 1021.67 31.00
2301 119.5100 1077.00 1124.78 33.00
2302 119.5600 1319.00 1251.42 36.00
2303 119.6100 1377.00 1400.63 37.00
2304 119.6600 1655.00 1569.54 41.00
2305 119.7100 1698.00 1751.59 41.00
2306 119.7600 1941.00 1937.49 44.00
2307 119.8100 2171.00 2114.66 47.00
2308 119.8600 2336.00 2269.00 48.00
2309 119.9100 2426.00 2385.66 49.00
2310 119.9600 2445.00 2451.66 49.00
2311 120.0100 2294.00 2458.94 48.00
2312 120.0600 2378.00 2406.82 49.00
2313 120.1100 2264.00 2302.22 48.00
2314 120.1600 2242.00 2157.43 47.00
2315 120.2100 2034.00 1987.13 45.00
2316 120.2600 1837.00 1805.78 43.00
2317 120.3100 1669.00 1626.16 41.00
2318 120.3600 1550.00 1458.23 39.00
2319 120.4100 1344.00 1308.85 37.00
2320 120.4600 1159.00 1181.95 34.00
2321 120.5100 994.00 1078.42 32.00
2322 120.5600 907.00 997.27 30.00
2323 120.6100 805.00 935.87 28.00
2324 120.6600 769.00 890.88 28.00
2325 120.7100 755.00 858.82 27.00
2326 120.7600 757.00 836.43 28.00
2327 120.8100 771.00 821.00 28.00
2328 120.8600 837.00 810.40 29.00
2329 120.9100 794.00 803.08 28.00
2330 120.9600 696.00 797.98 26.00
2331 121.0100 631.00 794.39 25.00
2332 121.0600 678.00 791.87 26.00
loop_
_refln_index_h
_refln_index_k
_refln_index_l
_refln_F_squared_calc
_refln_F_squared_meas
_refln_observed_status
_refln_d_spacing
1 1 1 1990.04 2054.98 o 4.815767
2 0 2 2422.67 2447.84 o 2.949043
1 1 3 6776.17 6935.41 o 2.514952
2 2 2 3942.55 3961.83 o 2.407883
0 0 4 57769.95 57005.09 o 2.085288
3 1 3 59.83 49.01 o 1.913592
2 2 4 1757.15 1825.13 o 1.702631
1 1 5 17342.79 17557.51 o 1.605256
3 3 3 929.75 941.26 o 1.605256
4 0 4 100547.88 99260.63 o 1.474522
3 1 5 1831.86 1908.51 o 1.409912
4 2 4 189.43 175.54 o 1.390192
2 0 6 1228.56 1220.84 o 1.318852
3 3 5 6842.73 6864.23 o 1.272014
2 2 6 1733.03 1788.74 o 1.257476
4 4 4 46631.31 47688.33 o 1.203942
1 1 7 39.24 38.91 o 1.167995
5 1 5 7628.70 7564.80 o 1.167995
4 2 6 2718.71 2753.68 o 1.114633
5 3 5 15216.67 15809.29 o 1.085926
3 1 7 1155.81 1200.82 o 1.085926
0 0 8 84311.74 81400.00 o 1.042644
3 3 7 2455.55 2368.24 o 1.019034
4 4 6 156.08 121.99 o 1.011513
6 0 6 4635.28 4621.59 o 0.983014
2 2 8 2053.08 2047.02 o 0.983014
5 5 5 26881.04 26992.01 o 0.963153
5 1 7 6011.40 6036.21 o 0.963153
6 2 6 535.04 630.83 o 0.956796
4 0 8 37550.59 37285.08 o 0.932569
5 3 7 0.17 0.17 o 0.915560
1 1 9 6864.48 6866.70 o 0.915560
4 2 8 606.86 553.36 o 0.910094
6 4 6 314.80 308.30 o 0.889170
3 1 9 14604.85 14477.52 o 0.874390
4 4 8 71185.54 71733.41 o 0.851315
7 1 7 1630.43 1653.26 o 0.838317
3 3 9 1996.78 2024.73 o 0.838317
5 5 7 1193.46 1210.17 o 0.838317
6 2 8 1135.18 1123.23 o 0.817917
2 0 10 2930.72 2899.86 o 0.817917
7 3 7 12.60 12.44 o 0.806370
5 1 9 23633.63 23347.73 o 0.806370
6 6 6 49.45 44.42 o 0.802628
2 2 10 38.72 34.78 o 0.802628
5 3 9 5445.28 5408.39 o 0.777817
6 4 8 499.17 462.06 o 0.774457
4 2 10 782.99 749.05 o 0.761440
7 5 7 1987.61 1978.29 o 0.752096
1 1 11 1217.79 1212.08 o 0.752096
8 0 8 60147.20 61371.59 o 0.737261
7 1 9 1460.45 1519.05 o 0.728770
5 5 9 11652.29 12119.85 o 0.728770
3 1 11 1359.13 1413.67 o 0.728770
4 4 10 105.12 114.68 o 0.726004
8 2 8 1943.02 2119.71 o 0.726004
6 6 8 3603.35 3647.85 o 0.715248
6 0 10 12.24 12.39 o 0.715248
7 3 9 6814.38 6784.54 o 0.707487
3 3 11 2.25 2.25 o 0.707487
6 2 10 59.09 58.60 o 0.704956
