#------------------------------------------------------------------------------
#$Date: 2016-02-16 22:30:59 +0200 (Tue, 16 Feb 2016) $
#$Revision: 176467 $
#$URL: svn://www.crystallography.net/cod/cif/4/00/17/4001712.cif $
#------------------------------------------------------------------------------
#
# This file is available in the Crystallography Open Database (COD),
# http://www.crystallography.net/
#
# All data on this site have been placed in the public domain by the
# contributors.
#
data_4001712
loop_
_publ_author_name
'Fukuda, Koichiro'
'Asaka, Toru'
'Oyabu, Masayuki'
'Urushihara, Daisuke'
'Berghout, Abid'
'B\'echade, Emilie'
'Masson, Olivier'
'Julien, Isabelle'
'Thomas, Philippe'
_publ_section_title
;
 Crystal Structure and Oxide-Ion Conductivity alongc-Axis of Apatite-Type
 Lanthanum Silicate with Excess Oxide Ions
;
_journal_issue                   23
_journal_name_full               'Chemistry of Materials'
_journal_page_first              4623
_journal_paper_doi               10.1021/cm3034643
_journal_volume                  24
_journal_year                    2012
_chemical_formula_moiety         'La9.50 O26.26 Si6'
_chemical_formula_sum            'La9.5 O26.26 Si6'
_chemical_formula_weight         1908.87
_chemical_name_systematic        ' ?'
_space_group_IT_number           176
_symmetry_cell_setting           hexagonal
_symmetry_Int_Tables_number      176
_symmetry_space_group_name_Hall  '-P 6c'
_symmetry_space_group_name_H-M   'P 63/m'
_cell_angle_alpha                90
_cell_angle_beta                 90
_cell_angle_gamma                120
_cell_formula_units_Z            1
_cell_length_a                   9.7136(1)
_cell_length_b                   9.7136(1)
_cell_length_c                   7.1814(1)
_cell_measurement_temperature    293
_cell_volume                     586.814(12)
_diffrn_ambient_temperature      293
_diffrn_measured_fraction_theta_full 0.99
_diffrn_measured_fraction_theta_max 0.99
_diffrn_measurement_device_type  'Bruker APEXII CCD'
_diffrn_measurement_method       '\f and \w'
_diffrn_radiation_source         'X-ray tube'
_diffrn_radiation_type           'Mo K\a'
_diffrn_radiation_wavelength     0.71073
_diffrn_reflns_av_R_equivalents  0.0357
_diffrn_reflns_av_sigmaI/netI    0.0299
_diffrn_reflns_limit_h_max       19
_diffrn_reflns_limit_h_min       -19
_diffrn_reflns_limit_k_max       13
_diffrn_reflns_limit_k_min       -18
_diffrn_reflns_limit_l_max       14
_diffrn_reflns_limit_l_min       -5
_diffrn_reflns_number            10770
_diffrn_reflns_theta_full        47.75
_diffrn_reflns_theta_max         47.75
_diffrn_reflns_theta_min         2.42
_exptl_absorpt_coefficient_mu    17.306
_exptl_absorpt_correction_T_max  0.844
_exptl_absorpt_correction_T_min  0.607
_exptl_absorpt_correction_type   multi-scan
_exptl_absorpt_process_details   '(SADABS; Sheldrick, 1996)'
_exptl_crystal_colour            colourless
_exptl_crystal_density_diffrn    5.402
_exptl_crystal_description       prism
_exptl_crystal_F_000             836
_exptl_crystal_size_max          0.02
_exptl_crystal_size_mid          0.015
_exptl_crystal_size_min          0.010
_refine_diff_density_max         1.13
_refine_diff_density_min         -1.33
_refine_ls_extinction_method     none
_refine_ls_goodness_of_fit_gt    1.09
_refine_ls_goodness_of_fit_ref   1.02
_refine_ls_number_constraints    1
_refine_ls_number_parameters     80
_refine_ls_number_reflns         1943
_refine_ls_number_restraints     0
_refine_ls_R_factor_all          0.0412
_refine_ls_R_factor_gt           0.0204
_refine_ls_shift/su_max          0.0482
_refine_ls_shift/su_mean         0.0036
_refine_ls_structure_factor_coef F
_refine_ls_weighting_details     w=1/(\s^2^(F)+0.0001F^2^)
_refine_ls_weighting_scheme      sigma
_refine_ls_wR_factor_gt          0.0202
_refine_ls_wR_factor_ref         0.0226
_reflns_number_gt                1373
_reflns_number_total             1943
_reflns_threshold_expression     I>3\s(I)
_cod_data_source_file            cm3034643_si_003.cif
_cod_data_source_block           I
_cod_original_cell_volume        586.81(1)
_cod_original_formula_sum        'La9.50 O26.26 Si6'
_cod_database_code               4001712
#BEGIN Tags that were not found in dictionaries:
_atom_site_anharm_details
;
The atomic anharmonic pdf is approximated by a Gram-Charlier expansion
about the harmonic pdf, according to the expression :

      P(u) = (1 + Cijk*Hijk/3! + Dijkl*Hijkl/4!)*P(0)

The coefficients Cijk and Dijkl are refined in the least squares procedure.
The reported coefficients Cijk are multiplied by 1000 and Dijkl by 10000.
;
#END Tags that were not found in dictionaries
loop_
_symmetry_equiv_pos_site_id
_symmetry_equiv_pos_as_xyz
1 x,y,z
2 -y,x-y,z
3 -x+y,-x,z
4 -x,-y,z+1/2
5 y,-x+y,z+1/2
6 x-y,x,z+1/2
7 -x,-y,-z
8 y,-x+y,-z
9 x-y,x,-z
10 x,y,-z+1/2
11 -y,x-y,-z+1/2
12 -x+y,-x,-z+1/2
loop_
_atom_site_label
_atom_site_type_symbol
_atom_site_fract_x
_atom_site_fract_y
_atom_site_fract_z
_atom_site_adp_type
_atom_site_U_iso_or_equiv
_atom_site_symmetry_multiplicity
_atom_site_occupancy
_atom_site_calc_flag
La1 La 0.333333 0.666667 -0.00089(7) Uani 0.01486(16) 4 0.8761(19) d
La2 La 0.22744(4) 0.23996(4) 0.25 Uani 0.01062(13) 6 1 d
Si Si 0.40250(8) 0.02999(8) 0.25 Uani 0.0074(2) 6 1 d
O1 O 0.5950(2) 0.1225(2) 0.25 Uani 0.0153(7) 6 1 d
O2 O 0.1611(2) 0.4863(3) 0.25 Uani 0.0191(7) 6 1 d
O3a O 0.305(3) 0.059(3) 0.091(2) Uani 0.009(4) 12 0.20(4) d
O3b O 0.3545(13) 0.0966(9) 0.0659(6) Uani 0.0153(17) 12 0.80(4) d
O4a O 0 0 0.25 Uani 0.031(3) 2 0.75(3) d
O4b O 0 0 0.121(8) Uiso 0.052(11) 4 0.125(14) d
O5 O 0.270(19) 0.08(2) 0.25 Uiso 0.10(4) 6 0.0428(19) d
loop_
_atom_site_aniso_label
_atom_site_aniso_type_symbol
_atom_site_aniso_U_11
_atom_site_aniso_U_22
_atom_site_aniso_U_33
_atom_site_aniso_U_12
_atom_site_aniso_U_13
_atom_site_aniso_U_23
La1 La 0.00972(18) 0.00972(18) 0.0251(3) 0.00486(9) 0 0
La2 La 0.01199(17) 0.01172(17) 0.01039(17) 0.00761(12) 0 0
Si Si 0.0089(3) 0.0069(2) 0.0063(2) 0.0038(2) 0 0
O1 O 0.0106(8) 0.0153(8) 0.0221(10) 0.0081(7) 0 0
O2 O 0.0090(7) 0.0239(10) 0.0167(9) 0.0025(7) 0 0
O3a O 0.010(6) 0.009(5) 0.009(3) 0.006(5) -0.001(3) -0.002(3)
O3b O 0.024(3) 0.0163(16) 0.0078(9) 0.012(2) -0.0052(12) -0.0010(9)
O4a O 0.0076(14) 0.0076(14) 0.078(8) 0.0038(7) 0 0
loop_
_atom_type_symbol
_atom_type_scat_dispersion_real
_atom_type_scat_dispersion_imag
_atom_type_scat_source
_atom_type_scat_Cromer_Mann_a1
_atom_type_scat_Cromer_Mann_b1
_atom_type_scat_Cromer_Mann_a2
_atom_type_scat_Cromer_Mann_b2
_atom_type_scat_Cromer_Mann_a3
_atom_type_scat_Cromer_Mann_b3
_atom_type_scat_Cromer_Mann_a4
_atom_type_scat_Cromer_Mann_b4
_atom_type_scat_Cromer_Mann_c
La -0.2871 2.4523 'International Tables Vol C tables 4.2.6.8 and 6.1.1.4'
20.577999 2.94817 19.599001 0.244475 11.3727 18.7726 3.28719 133.123993 2.14678
O 0.0106 0.0060 'International Tables Vol C tables 4.2.6.8 and 6.1.1.4' 3.0485
13.2771 2.2868 5.7011 1.5463 0.3239 0.867 32.908901 0.2508
Si 0.0817 0.0704 'International Tables Vol C tables 4.2.6.8 and 6.1.1.4' 6.2915
2.4386 3.0353 32.333698 1.9891 0.6785 1.541 81.693703 1.1407
loop_
_geom_angle_atom_site_label_1
_geom_angle_atom_site_label_2
_geom_angle_atom_site_label_3
_geom_angle_site_symmetry_1
_geom_angle_site_symmetry_3
_geom_angle
O1 La1 O1 4_664 5_564 75.89(6)
O1 La1 O1 4_664 6_554 75.89(7)
O1 La1 O2 4_664 . 153.50(9)
O1 La1 O2 4_664 2_665 125.43(7)
O1 La1 O2 4_664 3_565 93.21(6)
O1 La1 O3a 4_664 7_665 56.6(5)
O1 La1 O3a 4_664 8_565 65.1(4)
O1 La1 O3a 4_664 9_555 123.5(3)
O1 La1 O3b 4_664 7_665 57.9(2)
O1 La1 O3b 4_664 8_565 66.32(17)
O1 La1 O3b 4_664 9_555 125.28(11)
O1 La1 O5 4_664 4_664 51(3)
O1 La1 O5 4_664 5_564 49(2)
O1 La1 O5 4_664 6_554 107.3(13)
O1 La1 O1 5_564 6_554 75.89(8)
O1 La1 O2 5_564 . 93.21(5)
O1 La1 O2 5_564 2_665 153.50(11)
O1 La1 O2 5_564 3_565 125.43(11)
O1 La1 O3a 5_564 7_665 123.5(3)
O1 La1 O3a 5_564 8_565 56.6(5)
O1 La1 O3a 5_564 9_555 65.1(6)
O1 La1 O3b 5_564 7_665 125.28(11)
O1 La1 O3b 5_564 8_565 57.9(2)
O1 La1 O3b 5_564 9_555 66.3(3)
O1 La1 O5 5_564 4_664 107.3(10)
O1 La1 O5 5_564 5_564 51(3)
O1 La1 O5 5_564 6_554 49(4)
O1 La1 O2 6_554 . 125.43(8)
O1 La1 O2 6_554 2_665 93.21(9)
O1 La1 O2 6_554 3_565 153.50(8)
O1 La1 O3a 6_554 7_665 65.1(5)
O1 La1 O3a 6_554 8_565 123.5(4)
O1 La1 O3a 6_554 9_555 56.6(5)
O1 La1 O3b 6_554 7_665 66.32(19)
O1 La1 O3b 6_554 8_565 125.28(12)
O1 La1 O3b 6_554 9_555 57.9(2)
O1 La1 O5 6_554 4_664 49(3)
O1 La1 O5 6_554 5_564 107(2)
O1 La1 O5 6_554 6_554 51(3)
O2 La1 O2 . 2_665 73.30(6)
O2 La1 O2 . 3_565 73.30(7)
O2 La1 O3a . 7_665 142.6(4)
O2 La1 O3a . 8_565 88.7(4)
O2 La1 O3a . 9_555 70.2(4)
O2 La1 O3b . 7_665 140.88(13)
O2 La1 O3b . 8_565 87.36(17)
O2 La1 O3b . 9_555 68.62(17)
O2 La1 O5 . 4_664 154(2)
O2 La1 O5 . 5_564 105.1(19)
O2 La1 O5 . 6_554 81.7(16)
O2 La1 O2 2_665 3_565 73.30(11)
O2 La1 O3a 2_665 7_665 70.2(4)
O2 La1 O3a 2_665 8_565 142.6(4)
O2 La1 O3a 2_665 9_555 88.7(6)
O2 La1 O3b 2_665 7_665 68.62(17)
O2 La1 O3b 2_665 8_565 140.88(15)
O2 La1 O3b 2_665 9_555 87.4(2)
O2 La1 O5 2_665 4_664 81.7(19)
O2 La1 O5 2_665 5_564 154(3)
O2 La1 O5 2_665 6_554 105(3)
O2 La1 O3a 3_565 7_665 88.7(5)
O2 La1 O3a 3_565 8_565 70.2(5)
O2 La1 O3a 3_565 9_555 142.6(3)
O2 La1 O3b 3_565 7_665 87.36(18)
O2 La1 O3b 3_565 8_565 68.62(19)
O2 La1 O3b 3_565 9_555 140.88(12)
O2 La1 O5 3_565 4_664 105(2)
O2 La1 O5 3_565 5_564 82(3)
O2 La1 O5 3_565 6_554 154(2)
O3a La1 O3a 7_665 8_565 116.1(8)
O3a La1 O3a 7_665 9_555 116.1(9)
O3a La1 O3b 7_665 7_665 1.8(3)
O3a La1 O3b 7_665 8_565 116.7(7)
O3a La1 O3b 7_665 9_555 116.7(7)
O3a La1 O5 7_665 4_664 17.6(15)
O3a La1 O5 7_665 5_564 104(2)
O3a La1 O5 7_665 6_554 115(3)
O3a La1 O3a 8_565 9_555 116.1(9)
O3a La1 O3b 8_565 7_665 116.7(6)
O3a La1 O3b 8_565 8_565 1.8(4)
O3a La1 O3b 8_565 9_555 116.7(6)
O3a La1 O5 8_565 4_664 115(3)
O3a La1 O5 8_565 5_564 17.6(17)
O3a La1 O5 8_565 6_554 104(4)
O3a La1 O3b 9_555 7_665 116.7(7)
O3a La1 O3b 9_555 8_565 116.7(8)
O3a La1 O3b 9_555 9_555 1.8(3)
O3a La1 O5 9_555 4_664 104(3)
O3a La1 O5 9_555 5_564 115(3)
O3a La1 O5 9_555 6_554 18(2)
O3b La1 O3b 7_665 8_565 117.2(3)
O3b La1 O3b 7_665 9_555 117.2(4)
O3b La1 O5 7_665 4_664 19.4(13)
O3b La1 O5 7_665 5_564 105(2)
O3b La1 O5 7_665 6_554 116(3)
O3b La1 O3b 8_565 9_555 117.2(4)
O3b La1 O5 8_565 4_664 116(3)
O3b La1 O5 8_565 5_564 19.4(17)
O3b La1 O5 8_565 6_554 105(4)
O3b La1 O5 9_555 4_664 105(3)
O3b La1 O5 9_555 5_564 116(3)
O3b La1 O5 9_555 6_554 19(2)
O5 La1 O5 4_664 5_564 100(4)
O5 La1 O5 4_664 6_554 100(4)
O5 La1 O5 5_564 6_554 100(5)
O1 La2 O2 3_665 . 98.31(8)
O1 La2 O2 3_665 2_665 46.34(9)
O1 La2 O3a 3_665 . 77.9(5)
O1 La2 O3a 3_665 2_555 139.9(6)
O1 La2 O3a 3_665 6_555 85.7(8)
O1 La2 O3a 3_665 9_555 85.7(8)
O1 La2 O3a 3_665 10_555 77.9(5)
O1 La2 O3a 3_665 11_555 139.9(6)
O1 La2 O3b 3_665 . 68.81(19)
O1 La2 O3b 3_665 2_555 138.53(18)
O1 La2 O3b 3_665 6_555 82.8(3)
O1 La2 O3b 3_665 9_555 82.8(3)
O1 La2 O3b 3_665 10_555 68.81(19)
O1 La2 O3b 3_665 11_555 138.53(18)
O1 La2 O4a 3_665 . 150.64(7)
O1 La2 O4b 3_665 . 143.8(7)
O1 La2 O4b 3_665 4_555 124.5(5)
O1 La2 O4b 3_665 7_555 124.5(5)
O1 La2 O4b 3_665 10_555 143.8(7)
O1 La2 O5 3_665 . 82(4)
O1 La2 O5 3_665 2_555 155(5)
O1 La2 O5 3_665 6_554 94(4)
O1 La2 O5 3_665 6_555 94(4)
O2 La2 O2 . 2_665 51.97(7)
O2 La2 O3a . . 152.4(5)
O2 La2 O3a . 2_555 51.1(7)
O2 La2 O3a . 6_555 78.6(9)
O2 La2 O3a . 9_555 78.6(9)
O2 La2 O3a . 10_555 152.4(5)
O2 La2 O3a . 11_555 51.1(7)
O2 La2 O3b . . 146.05(14)
O2 La2 O3b . 2_555 49.7(2)
O2 La2 O3b . 6_555 68.9(4)
O2 La2 O3b . 9_555 68.9(4)
O2 La2 O3b . 10_555 146.05(14)
O2 La2 O3b . 11_555 49.7(2)
O2 La2 O4a . . 111.05(4)
O2 La2 O4b . . 109.42(19)
O2 La2 O4b . 4_555 103.48(18)
O2 La2 O4b . 7_555 103.48(18)
O2 La2 O4b . 10_555 109.42(19)
O2 La2 O5 . . 180(5)
O2 La2 O5 . 2_555 56(5)
O2 La2 O5 . 6_554 82(4)
O2 La2 O5 . 6_555 82(4)
O2 La2 O3a 2_665 . 118.7(5)
O2 La2 O3a 2_665 2_555 98.6(7)
O2 La2 O3a 2_665 6_555 78.2(6)
O2 La2 O3a 2_665 9_555 78.2(6)
O2 La2 O3a 2_665 10_555 118.7(5)
O2 La2 O3a 2_665 11_555 98.6(7)
O2 La2 O3b 2_665 . 108.59(17)
O2 La2 O3b 2_665 2_555 97.1(2)
O2 La2 O3b 2_665 6_555 68.7(2)
O2 La2 O3b 2_665 9_555 68.7(2)
O2 La2 O3b 2_665 10_555 108.59(17)
O2 La2 O3b 2_665 11_555 97.1(2)
O2 La2 O4a 2_665 . 163.02(6)
O2 La2 O4b 2_665 . 152.3(10)
O2 La2 O4b 2_665 4_555 128.4(6)
O2 La2 O4b 2_665 7_555 128.4(6)
O2 La2 O4b 2_665 10_555 152.3(10)
O2 La2 O5 2_665 . 128(4)
O2 La2 O5 2_665 2_555 108(5)
O2 La2 O5 2_665 6_554 87(2)
O2 La2 O5 2_665 6_555 87(2)
O3a La2 O3a . 2_555 116.2(9)
O3a La2 O3a . 6_555 127.6(11)
O3a La2 O3a . 9_555 73.9(11)
O3a La2 O3a . 10_555 54.2(7)
O3a La2 O3a . 11_555 141.7(8)
O3a La2 O3b . . 10.2(5)
O3a La2 O3b . 2_555 117.1(6)
O3a La2 O3b . 6_555 136.2(7)
O3a La2 O3b . 9_555 83.5(6)
O3a La2 O3b . 10_555 58.2(6)
O3a La2 O3b . 11_555 143.1(6)
O3a La2 O4a . . 76.1(5)
O3a La2 O4b . . 66.7(7)
O3a La2 O4b . 4_555 101.0(5)
O3a La2 O4b . 7_555 59.8(6)
O3a La2 O4b . 10_555 87.1(8)
O3a La2 O5 . . 27.6(10)
O3a La2 O5 . 2_555 124(4)
O3a La2 O5 . 6_554 71(4)
O3a La2 O5 . 6_555 125(4)
O3a La2 O3a 2_555 6_555 108.3(11)
O3a La2 O3a 2_555 9_555 65.2(11)
O3a La2 O3a 2_555 10_555 141.7(8)
O3a La2 O3a 2_555 11_555 44.2(6)
O3a La2 O3b 2_555 . 119.9(6)
O3a La2 O3b 2_555 2_555 1.5(7)
O3a La2 O3b 2_555 6_555 103.9(7)
O3a La2 O3b 2_555 9_555 63.3(5)
O3a La2 O3b 2_555 10_555 151.2(6)
O3a La2 O3b 2_555 11_555 44.4(4)
O3a La2 O4a 2_555 . 65.8(6)
O3a La2 O4b 2_555 . 58.5(8)
O3a La2 O4b 2_555 4_555 91.2(5)
O3a La2 O4b 2_555 7_555 56.4(6)
O3a La2 O4b 2_555 10_555 76.3(9)
O3a La2 O5 2_555 . 129(4)
O3a La2 O5 2_555 2_555 24(2)
O3a La2 O5 2_555 6_554 60(5)
O3a La2 O5 2_555 6_555 104(5)
O3a La2 O3a 6_555 9_555 154.1(10)
O3a La2 O3a 6_555 10_555 73.9(11)
O3a La2 O3a 6_555 11_555 65.2(11)
O3a La2 O3b 6_555 . 128.9(11)
O3a La2 O3b 6_555 2_555 108.0(11)
O3a La2 O3b 6_555 6_555 10.8(8)
O3a La2 O3b 6_555 9_555 143.3(8)
O3a La2 O3b 6_555 10_555 69.5(10)
O3a La2 O3b 6_555 11_555 64.7(10)
O3a La2 O4a 6_555 . 99.7(6)
O3a La2 O4b 6_555 . 121.6(14)
O3a La2 O4b 6_555 4_555 50.8(8)
O3a La2 O4b 6_555 7_555 148.3(9)
O3a La2 O4b 6_555 10_555 77.8(14)
O3a La2 O5 6_555 . 101.4(11)
O3a La2 O5 6_555 2_555 88.7(15)
O3a La2 O5 6_555 6_554 160(4)
O3a La2 O5 6_555 6_555 10(3)
O3a La2 O3a 9_555 10_555 127.6(11)
O3a La2 O3a 9_555 11_555 108.3(11)
O3a La2 O3b 9_555 . 69.5(10)
O3a La2 O3b 9_555 2_555 64.7(10)
O3a La2 O3b 9_555 6_555 143.3(8)
O3a La2 O3b 9_555 9_555 10.8(8)
O3a La2 O3b 9_555 10_555 128.9(11)
O3a La2 O3b 9_555 11_555 108.0(11)
O3a La2 O4a 9_555 . 99.7(6)
O3a La2 O4b 9_555 . 77.8(14)
O3a La2 O4b 9_555 4_555 148.3(9)
O3a La2 O4b 9_555 7_555 50.8(8)
O3a La2 O4b 9_555 10_555 121.6(14)
O3a La2 O5 9_555 . 101.4(11)
O3a La2 O5 9_555 2_555 88.7(15)
O3a La2 O5 9_555 6_554 10(3)
O3a La2 O5 9_555 6_555 160(4)
O3a La2 O3a 10_555 11_555 116.2(9)
O3a La2 O3b 10_555 . 58.2(6)
O3a La2 O3b 10_555 2_555 143.1(6)
O3a La2 O3b 10_555 6_555 83.5(6)
O3a La2 O3b 10_555 9_555 136.2(7)
O3a La2 O3b 10_555 10_555 10.2(5)
O3a La2 O3b 10_555 11_555 117.1(6)
O3a La2 O4a 10_555 . 76.1(5)
O3a La2 O4b 10_555 . 87.1(8)
O3a La2 O4b 10_555 4_555 59.8(6)
O3a La2 O4b 10_555 7_555 101.0(5)
O3a La2 O4b 10_555 10_555 66.7(7)
O3a La2 O5 10_555 . 27.6(10)
O3a La2 O5 10_555 2_555 124(4)
O3a La2 O5 10_555 6_554 125(4)
O3a La2 O5 10_555 6_555 71(4)
O3a La2 O3b 11_555 . 151.2(6)
O3a La2 O3b 11_555 2_555 44.4(4)
O3a La2 O3b 11_555 6_555 63.3(5)
O3a La2 O3b 11_555 9_555 103.9(7)
O3a La2 O3b 11_555 10_555 119.9(6)
O3a La2 O3b 11_555 11_555 1.5(7)
O3a La2 O4a 11_555 . 65.8(6)
O3a La2 O4b 11_555 . 76.3(9)
O3a La2 O4b 11_555 4_555 56.4(6)
O3a La2 O4b 11_555 7_555 91.2(5)
O3a La2 O4b 11_555 10_555 58.5(8)
O3a La2 O5 11_555 . 129(4)
O3a La2 O5 11_555 2_555 24(2)
O3a La2 O5 11_555 6_554 104(5)
O3a La2 O5 11_555 6_555 60(5)
O3b La2 O3b . 2_555 120.5(3)
O3b La2 O3b . 6_555 135.6(4)
O3b La2 O3b . 9_555 78.2(4)
O3b La2 O3b . 10_555 60.3(2)
O3b La2 O3b . 11_555 152.6(3)
O3b La2 O4a . . 85.98(17)
O3b La2 O4b . . 75.2(6)
O3b La2 O4b . 4_555 109.7(3)
O3b La2 O4b . 7_555 64.7(3)
O3b La2 O4b . 10_555 97.2(7)
O3b La2 O5 . . 34(2)
O3b La2 O5 . 2_555 131(4)
O3b La2 O5 . 6_554 68(4)
O3b La2 O5 . 6_555 129(4)
O3b La2 O3b 2_555 6_555 103.4(4)
O3b La2 O3b 2_555 9_555 62.6(4)
O3b La2 O3b 2_555 10_555 152.6(3)
O3b La2 O3b 2_555 11_555 44.41(14)
O3b La2 O4a 2_555 . 67.3(2)
O3b La2 O4b 2_555 . 60.0(4)
O3b La2 O4b 2_555 4_555 92.1(4)
O3b La2 O4b 2_555 7_555 57.4(2)
O3b La2 O4b 2_555 10_555 77.6(7)
O3b La2 O5 2_555 . 130(4)
O3b La2 O5 2_555 2_555 25(2)
O3b La2 O5 2_555 6_554 60(5)
O3b La2 O5 2_555 6_555 104(5)
O3b La2 O3b 6_555 9_555 132.5(4)
O3b La2 O3b 6_555 10_555 78.2(4)
O3b La2 O3b 6_555 11_555 62.6(4)
O3b La2 O4a 6_555 . 107.3(2)
O3b La2 O4b 6_555 . 128.4(12)
O3b La2 O4b 6_555 4_555 59.8(6)
O3b La2 O4b 6_555 7_555 152.8(6)
O3b La2 O4b 6_555 10_555 85.9(13)
O3b La2 O5 6_555 . 111.2(9)
O3b La2 O5 6_555 2_555 87(2)
O3b La2 O5 6_555 6_554 150(3)
O3b La2 O5 6_555 6_555 19(2)
O3b La2 O3b 9_555 10_555 135.6(4)
O3b La2 O3b 9_555 11_555 103.4(4)
O3b La2 O4a 9_555 . 107.3(2)
O3b La2 O4b 9_555 . 85.9(13)
O3b La2 O4b 9_555 4_555 152.8(6)
O3b La2 O4b 9_555 7_555 59.8(6)
O3b La2 O4b 9_555 10_555 128.4(12)
O3b La2 O5 9_555 . 111.2(9)
O3b La2 O5 9_555 2_555 87(2)
O3b La2 O5 9_555 6_554 19(2)
O3b La2 O5 9_555 6_555 150(3)
O3b La2 O3b 10_555 11_555 120.5(3)
O3b La2 O4a 10_555 . 85.98(17)
O3b La2 O4b 10_555 . 97.2(7)
O3b La2 O4b 10_555 4_555 64.7(3)
O3b La2 O4b 10_555 7_555 109.7(3)
O3b La2 O4b 10_555 10_555 75.2(6)
O3b La2 O5 10_555 . 34(2)
O3b La2 O5 10_555 2_555 131(4)
O3b La2 O5 10_555 6_554 129(4)
O3b La2 O5 10_555 6_555 68(4)
O3b La2 O4a 11_555 . 67.3(2)
O3b La2 O4b 11_555 . 77.6(7)
O3b La2 O4b 11_555 4_555 57.4(2)
O3b La2 O4b 11_555 7_555 92.1(4)
O3b La2 O4b 11_555 10_555 60.0(4)
O3b La2 O5 11_555 . 130(4)
O3b La2 O5 11_555 2_555 25(2)
O3b La2 O5 11_555 6_554 104(5)
O3b La2 O5 11_555 6_555 60(5)
O4a La2 O4b . . 22.2(13)
O4a La2 O4b . 4_555 49.5(6)
O4a La2 O4b . 7_555 49.5(6)
O4a La2 O4b . 10_555 22.2(13)
O4a La2 O5 . . 69(4)
O4a La2 O5 . 2_555 55(5)
O4a La2 O5 . 6_554 90(3)
O4a La2 O5 . 6_555 90(3)
O4b La2 O4b . 4_555 71.7(14)
O4b La2 O4b . 7_555 27.3(14)
O4b La2 O4b . 10_555 44.4(18)
O4b La2 O5 . . 70(4)
O4b La2 O5 . 2_555 58(5)
O4b La2 O5 . 6_554 68(3)
O4b La2 O5 . 6_555 112(3)
O4b La2 O4b 4_555 7_555 99.1(9)
O4b La2 O4b 4_555 10_555 27.3(14)
O4b La2 O5 4_555 . 76(3)
O4b La2 O5 4_555 2_555 68(3)
O4b La2 O5 4_555 6_554 139(3)
O4b La2 O5 4_555 6_555 41(2)
O4b La2 O4b 7_555 10_555 71.7(14)
O4b La2 O5 7_555 . 76(3)
O4b La2 O5 7_555 2_555 68(3)
O4b La2 O5 7_555 6_554 41(2)
O4b La2 O5 7_555 6_555 139(3)
O4b La2 O5 10_555 . 70(4)
O4b La2 O5 10_555 2_555 58(5)
O4b La2 O5 10_555 6_554 112(3)
O4b La2 O5 10_555 6_555 68(3)
O5 La2 O5 . 2_555 123(7)
O5 La2 O5 . 6_554 98(4)
O5 La2 O5 . 6_555 98(4)
O5 La2 O5 2_555 6_554 83(4)
O5 La2 O5 2_555 6_555 83(4)
O5 La2 O5 6_554 6_555 163(6)
O1 Si O2 . 3_555 112.45(17)
O1 Si O3a . . 121.6(8)
O1 Si O3a . 10_555 121.6(8)
O1 Si O3b . . 105.0(4)
O1 Si O3b . 10_555 105.0(4)
O1 Si O5 . . 137(6)
O2 Si O3a 3_555 . 103.0(9)
O2 Si O3a 3_555 10_555 103.0(9)
O2 Si O3b 3_555 . 113.1(3)
O2 Si O3b 3_555 10_555 113.1(3)
O2 Si O5 3_555 . 111(6)
O3a Si O3a . 10_555 91.4(15)
O3a Si O3b . . 16.7(9)
O3a Si O3b . 10_555 101.4(11)
O3a Si O5 . . 45.8(11)
O3a Si O3b 10_555 . 101.4(11)
O3a Si O3b 10_555 10_555 16.7(9)
O3a Si O5 10_555 . 45.8(11)
O3b Si O3b . 10_555 107.5(5)
O3b Si O5 . . 56.4(15)
O3b Si O5 10_555 . 56.4(15)
loop_
_geom_bond_atom_site_label_1
_geom_bond_atom_site_label_2
_geom_bond_site_symmetry_2
_geom_bond_distance
La1 O1 4_664 2.5404(16)
La1 O1 5_564 2.5404(14)
La1 O1 6_554 2.540(3)
La1 O2 . 2.4867(13)
La1 O2 2_665 2.487(2)
La1 O2 3_565 2.487(2)
La1 O3a 7_665 3.24(2)
La1 O3a 8_565 3.24(4)
La1 O3a 9_555 3.24(3)
La1 O3b 7_665 2.780(9)
La1 O3b 8_565 2.780(13)
La1 O3b 9_555 2.780(13)
La2 O1 3_665 2.528(3)
La2 O2 . 2.771(3)
La2 O3a . 2.51(3)
La2 O3a 6_555 2.512(19)
La2 O3a 9_555 2.512(19)
La2 O3a 10_555 2.51(3)
La2 O3b . 2.632(12)
La2 O3b 2_555 3.498(11)
La2 O3b 6_555 2.479(7)
La2 O3b 9_555 2.479(7)
La2 O3b 10_555 2.632(12)
La2 O4a . 2.2725(2)
La2 O4b . 2.45(2)
La2 O4b 10_555 2.45(2)
La2 O5 . 1.8(2)
Si O1 . 1.620(2)
Si O2 3_555 1.617(2)
Si O3a . 1.60(3)
Si O3a 10_555 1.60(3)
Si O3b . 1.639(8)
Si O3b 10_555 1.639(8)
Si O5 . 1.6(2)
loop_
_refln_index_h
_refln_index_k
_refln_index_l
_refln_F_squared_calc
_refln_F_squared_meas
_refln_F_squared_sigma
_refln_observed_status
0 1 0 202.56 195.96 14.12 o
-1 2 0 2966.33 3131.83 40.60 o
0 2 0 22145.60 22553.00 210.08 o
-2 3 0 38533.50 36713.30 538.45 o
-1 3 0 19054.70 19135.20 227.74 o
0 3 0 55195.70 55889.20 663.79 o
-3 4 0 8438.15 8655.78 120.05 o
-2 4 0 2569.63 2505.11 49.43 o
-1 4 0 10656.90 12294.30 135.94 o
0 4 0 17137.00 17790.00 225.97 o
-4 5 0 46627.00 46207.70 554.34 o
-3 5 0 11728.20 12054.20 137.70 o
-2 5 0 12524.80 13004.00 206.55 o
-1 5 0 83052.90 79469.70 805.02 o
0 5 0 7642.16 7667.15 116.52 o
-5 6 0 10198.00 10297.60 150.06 o
-4 6 0 14403.90 14102.00 192.43 o
-3 6 0 982.35 983.33 37.07 o
-2 6 0 17897.50 18312.50 236.56 o
-1 6 0 759.53 769.72 37.07 o
0 6 0 5144.17 5209.71 107.69 o
-6 7 0 23563.70 23426.90 263.05 o
-5 7 0 12716.60 12149.50 174.77 o
-4 7 0 5041.27 5038.46 77.68 o
-3 7 0 3478.36 3636.73 75.91 o
-2 7 0 2231.99 2176.74 67.09 o
-1 7 0 19047.70 19364.70 222.44 o
0 7 0 5535.18 5613.98 90.04 o
-7 8 0 2693.98 2699.30 56.49 o
-6 8 0 5783.34 5666.95 91.80 o
-5 8 0 3618.54 3500.80 63.55 o
-4 8 0 51306.90 50231.00 522.56 o
-3 8 0 259.27 289.53 37.07 o
-2 8 0 12170.70 12013.60 183.60 o
-1 8 0 27055.60 26694.70 264.81 o
0 8 0 8721.15 8569.27 107.69 o
-8 9 0 113.25 125.34 24.72 o
-7 9 0 12484.30 12398.40 144.76 o
-6 9 0 10816.70 10618.90 144.76 o
-5 9 0 10176.90 9745.03 134.17 o
-4 9 0 113.91 143.00 28.25 o
-3 9 0 451.03 413.11 31.78 o
-2 9 0 3408.36 3340.14 67.09 o
-1 9 0 4948.93 4874.28 82.97 o
0 9 0 30127.40 29854.70 301.88 o
-9 10 0 2744.59 2768.15 77.68 o
-8 10 0 2020.48 1970.19 65.32 o
-7 10 0 12016.00 11618.10 141.23 o
-6 10 0 256.83 307.18 35.31 o
-5 10 0 14738.60 13900.80 146.53 o
-4 10 0 7940.32 7803.09 98.86 o
-3 10 0 7464.74 7199.32 95.33 o
-2 10 0 7086.52 7063.38 104.16 o
-1 10 0 5.74 -40.60 33.54 <
0 10 0 1696.60 1820.13 70.62 o
-10 11 0 6.06 -42.37 37.07 <
-9 11 0 3065.57 3036.49 82.97 o
-8 11 0 2190.81 2148.50 70.62 o
-7 11 0 1772.63 1786.59 72.38 o
-6 11 0 6827.45 6715.60 104.16 o
-5 11 0 8867.45 8488.06 120.05 o
-4 11 0 4212.02 4212.25 74.15 o
-3 11 0 2971.96 3040.03 65.32 o
-2 11 0 8539.44 8094.38 120.05 o
-1 11 0 3891.11 3846.82 95.33 o
0 11 0 4156.35 4316.41 104.16 o
-11 12 0 3167.75 3160.07 95.33 o
-10 12 0 1411.94 1507.66 67.09 o
-9 12 0 21622.20 21880.40 273.64 o
-8 12 0 1019.70 1032.76 67.09 o
-7 12 0 7276.16 7169.31 125.34 o
-6 12 0 1508.87 1408.79 54.73 o
-5 12 0 13.48 22.95 33.54 <
-4 12 0 370.50 402.51 42.37 o
-3 12 0 2181.25 2300.32 70.62 o
-2 12 0 7664.62 7817.21 125.34 o
-1 12 0 429.82 356.61 45.90 o
0 12 0 9950.86 10182.80 167.71 o
-12 13 0 1643.55 1731.86 111.22 o
-11 13 0 1246.71 1294.04 70.62 o
-10 13 0 84.55 26.48 40.60 <
-9 13 0 6785.12 6844.47 148.29 o
-8 13 0 8962.18 8618.70 148.29 o
-7 13 0 5586.86 5559.26 116.52 o
-6 13 0 976.51 1036.29 52.96 o
-5 13 0 24344.80 24194.90 270.11 o
-4 13 0 613.95 612.59 54.73 o
-3 13 0 2230.59 2291.49 84.74 o
-2 13 0 2218.72 2220.88 116.52 o
-1 13 0 4430.60 4395.86 160.65 o
0 13 0 1206.67 1115.74 98.86 o
-13 14 0 1351.66 1352.30 105.92 o
-12 14 0 4739.94 4907.82 171.24 o
-11 14 0 2252.06 2242.06 125.34 o
-10 14 0 4834.38 5107.31 165.95 o
-9 14 0 472.83 480.19 74.15 o
-8 14 0 6469.31 6620.26 150.06 o
-7 14 0 399.99 446.65 58.26 o
-6 14 0 18.65 47.67 44.14 <
-5 14 0 27.83 77.68 65.32 <
-4 14 0 1699.32 1813.07 165.95 o
-3 14 0 3777.40 3848.58 229.50 o
-2 14 0 139.21 225.97 112.99 <
-1 14 0 11346.70 11462.80 386.62 o
0 14 0 735.64 806.79 143.00 o
-14 15 0 2078.52 2178.51 130.64 o
-13 15 0 729.51 845.63 98.86 o
-12 15 0 1272.42 1290.51 109.46 o
-11 15 0 1573.05 1677.13 162.42 o
-10 15 0 2822.48 2672.82 134.17 o
-9 15 0 881.42 843.86 88.27 o
-8 15 0 1103.38 1195.18 95.33 o
-7 15 0 3456.57 3521.98 139.47 o
-5 15 0 2574.47 2162.62 181.84 o
-4 15 0 3038.22 2761.09 208.32 o
-3 15 0 383.81 568.46 132.40 o
-2 15 0 1342.43 1387.61 165.95 o
-1 15 0 950.45 771.48 151.82 o
0 15 0 251.70 271.87 135.94 <
-15 16 0 2380.09 2014.33 203.02 o
-14 16 0 2004.33 2010.80 134.17 o
-13 16 0 547.47 543.74 98.86 o
-12 16 0 9.78 -74.15 79.44 <
-11 16 0 275.67 144.76 79.44 <
-10 16 0 1194.92 1242.84 104.16 o
-9 16 0 233.12 218.91 77.68 <
-8 16 0 4108.56 4076.32 233.03 o
-7 16 0 1935.06 1986.08 171.24 o
-6 16 0 2204.92 2007.26 180.07 o
-5 16 0 3363.01 2983.53 217.15 o
-4 16 0 92.16 153.59 114.75 <
-3 16 0 1641.67 1565.91 180.07 o
-2 16 0 142.55 317.77 137.70 <
-1 16 0 54.77 95.33 141.23 <
0 16 0 238.47 139.47 137.70 <
-16 17 0 841.12 688.51 158.89 o
-15 17 0 759.30 700.86 155.36 o
-14 17 0 702.94 833.27 112.99 o
-13 17 0 9772.26 10453.00 386.62 o
-12 17 0 1184.56 1147.51 116.52 o
-11 17 0 1932.08 1903.11 121.81 o
-10 17 0 6059.03 6117.12 195.96 o
-9 17 0 1888.89 1971.96 178.31 o
-8 17 0 93.38 -19.42 112.99 <
-7 17 0 312.17 361.91 130.64 <
-6 17 0 78.70 158.89 118.28 <
-5 17 0 1546.41 1392.90 167.71 o
-4 17 0 4095.93 4079.85 245.39 o
-3 17 0 2509.88 2167.92 201.26 o
-2 17 0 432.48 188.90 137.70 <
-1 17 0 6290.61 5834.66 294.82 o
0 17 0 193.73 98.86 97.10 <
-17 18 0 893.24 797.96 155.36 o
-16 18 0 1376.76 1112.20 181.84 o
-15 18 0 733.95 692.04 162.42 o
-14 18 0 293.70 427.23 107.69 o
-13 18 0 355.60 185.37 97.10 <
-12 18 0 171.29 157.12 97.10 <
-11 18 0 386.64 333.66 135.94 <
-10 18 0 219.07 259.51 128.87 <
-9 18 0 4187.61 4132.81 248.92 o
-8 18 0 1908.86 1581.80 178.31 o
-7 18 0 1416.70 1419.38 173.01 o
-6 18 0 6486.99 5561.02 280.70 o
-5 18 0 305.43 121.81 130.64 <
-4 18 0 376.44 324.83 134.17 <
-3 18 0 237.14 171.24 130.64 <
-2 18 0 31.23 93.57 127.11 <
-1 18 0 724.58 635.54 148.29 o
-15 19 0 936.88 965.68 169.48 o
-14 19 0 193.39 296.59 107.69 <
-13 19 0 1501.25 1936.65 210.08 o
-12 19 0 1356.74 1611.81 203.02 o
-11 19 0 564.60 805.02 169.48 o
-10 19 0 907.78 760.89 153.59 o
-9 19 0 1008.35 993.92 162.42 o
-8 19 0 77.91 49.43 132.40 <
-7 19 0 569.33 404.28 141.23 <
-6 19 0 426.13 225.97 135.94 <
-5 19 0 446.65 376.03 143.00 <
-4 19 0 1138.47 669.09 150.06 o
-12 20 0 135.73 282.46 160.65 <
-11 20 0 1003.19 824.44 181.84 o
-10 20 0 147.60 197.73 144.76 <
-9 20 0 2.78 30.01 137.70 <
-8 20 0 149.61 -47.67 127.11 <
0 1 1 54.10 54.73 5.30 o
-1 2 1 9408.47 9642.64 58.26 o
0 2 1 130.58 60.02 8.83 o
-2 3 1 60182.70 58403.10 457.24 o
-1 3 1 34268.80 35053.90 254.22 o
0 3 1 20.98 33.54 15.89 <
-3 4 1 3345.21 3702.05 56.49 o
-2 4 1 7335.44 7172.84 91.80 o
-1 4 1 9.68 7.06 14.12 <
0 4 1 79.54 28.25 14.12 <
-4 5 1 2068.02 2204.99 45.90 o
-3 5 1 22977.50 23559.30 206.55 o
-2 5 1 13756.50 14550.50 151.82 o
-1 5 1 198.19 225.97 17.65 o
0 5 1 205.42 259.51 19.42 o
-5 6 1 11110.60 11024.90 111.22 o
-4 6 1 3995.08 3991.58 67.09 o
-3 6 1 30724.10 29777.10 324.83 o
-2 6 1 757.03 739.70 26.48 o
-1 6 1 4337.54 4365.84 56.49 o
0 6 1 2029.85 2039.04 38.84 o
-6 7 1 19270.80 19297.60 148.29 o
-5 7 1 6694.55 6643.21 68.85 o
-4 7 1 12903.60 12578.50 127.11 o
-3 7 1 0.98 0.00 22.95 <
-2 7 1 15086.80 14599.90 125.34 o
-1 7 1 8954.90 8913.52 79.44 o
0 7 1 2499.32 2420.37 37.07 o
-7 8 1 4110.28 4173.42 49.43 o
-6 8 1 3167.40 3117.70 42.37 o
-5 8 1 697.28 663.79 22.95 o
-4 8 1 1131.67 1022.17 30.01 o
-3 8 1 3467.85 3417.82 47.67 o
-2 8 1 11763.10 11471.60 100.63 o
-1 8 1 1298.53 1290.51 30.01 o
0 8 1 262.19 257.75 21.18 o
-8 9 1 680.56 732.64 26.48 o
-7 9 1 5547.36 5555.73 60.02 o
-6 9 1 4246.17 4000.41 47.67 o
-5 9 1 517.03 511.97 22.95 o
-4 9 1 1960.36 1837.79 40.60 o
-3 9 1 2556.81 2473.33 44.14 o
-2 9 1 320.04 347.79 21.18 o
-1 9 1 6.59 -14.12 17.65 <
0 9 1 517.88 531.39 28.25 o
-9 10 1 339.40 349.55 28.25 o
-8 10 1 10800.10 10627.70 95.33 o
-7 10 1 9162.00 9067.11 84.74 o
-6 10 1 69.65 65.32 19.42 o
-5 10 1 1318.23 1269.33 31.78 o
-4 10 1 9255.02 8980.61 84.74 o
-3 10 1 10813.80 10571.20 102.39 o
-2 10 1 1862.61 1816.60 40.60 o
-1 10 1 177.40 158.89 22.95 o
0 10 1 2443.78 2482.16 45.90 o
-10 11 1 13976.90 14020.80 123.58 o
-9 11 1 2.58 14.12 22.95 <
-8 11 1 1312.74 1401.73 38.84 o
-7 11 1 1498.71 1558.85 37.07 o
-6 11 1 10737.20 10613.60 93.57 o
-5 11 1 2577.10 2480.39 44.14 o
-4 11 1 4549.10 4560.04 60.02 o
-3 11 1 416.13 425.46 30.01 o
-2 11 1 9660.56 9619.69 100.63 o
-1 11 1 1829.92 1843.08 44.14 o
0 11 1 1650.16 1730.10 47.67 o
-11 12 1 2493.44 2505.11 58.26 o
-10 12 1 754.37 780.31 38.84 o
-9 12 1 268.12 314.24 31.78 o
-8 12 1 45.26 28.25 31.78 <
-7 12 1 2026.88 1991.38 44.14 o
-6 12 1 3857.61 3984.52 56.49 o
-5 12 1 316.10 291.29 26.48 o
-4 12 1 786.17 769.72 33.54 o
-3 12 1 4674.54 4537.09 68.85 o
-2 12 1 5825.81 5903.51 79.44 o
-1 12 1 217.99 234.80 33.54 o
0 12 1 76.78 141.23 42.37 o
-12 13 1 321.31 358.38 54.73 o
-11 13 1 1060.07 1062.77 52.96 o
-10 13 1 90.27 54.73 33.54 <
-9 13 1 96.52 98.86 33.54 <
-8 13 1 58.73 42.37 31.78 <
-7 13 1 313.40 282.46 30.01 o
-6 13 1 97.49 72.38 28.25 <
-5 13 1 5.79 8.83 24.72 <
-4 13 1 89.26 90.04 28.25 o
-3 13 1 23.79 51.20 28.25 <
-2 13 1 17.58 40.60 40.60 <
-1 13 1 9.69 5.30 58.26 <
0 13 1 6.13 42.37 60.02 <
-13 14 1 45.03 17.65 63.55 <
-12 14 1 5966.71 6422.54 137.70 o
-11 14 1 1865.68 1989.61 82.97 o
-10 14 1 654.16 617.89 56.49 o
-9 14 1 166.07 160.65 42.37 o
-8 14 1 2717.13 2662.23 81.21 o
-7 14 1 4615.38 4692.44 109.46 o
-6 14 1 44.67 19.42 38.84 <
-5 14 1 610.63 660.26 44.14 o
-4 14 1 2769.91 2819.35 112.99 o
-3 14 1 2823.76 2676.35 111.22 o
-2 14 1 59.64 47.67 58.26 <
-1 14 1 76.94 45.90 61.79 <
0 14 1 685.97 796.20 82.97 o
-14 15 1 1851.19 1832.49 104.16 o
-13 15 1 286.78 333.66 70.62 o
-12 15 1 1584.74 1671.84 84.74 o
-11 15 1 1371.14 1467.05 77.68 o
-10 15 1 2953.79 2946.46 100.63 o
-9 15 1 110.53 143.00 49.43 <
-8 15 1 3247.56 3200.68 116.52 o
-7 15 1 30.11 81.21 68.85 <
-6 15 1 3518.86 3597.89 123.58 o
-5 15 1 41.20 -10.59 72.38 <
-4 15 1 4189.20 4079.85 137.70 o
-3 15 1 410.84 423.70 91.80 o
-2 15 1 696.86 600.24 98.86 o
-1 15 1 429.00 450.18 98.86 o
0 15 1 2359.27 2289.73 116.52 o
-15 16 1 2118.21 2217.35 118.28 o
-14 16 1 63.70 111.22 72.38 <
-13 16 1 15.99 3.53 60.02 <
-12 16 1 310.57 353.08 63.55 o
-11 16 1 2770.30 3006.48 107.69 o
-10 16 1 1906.72 1929.59 82.97 o
-9 16 1 164.34 213.61 63.55 o
-8 16 1 65.24 68.85 61.79 <
-7 16 1 3035.41 3133.59 151.82 o
-6 16 1 3091.39 3239.52 155.36 o
-5 16 1 2.77 0.00 79.44 <
-4 16 1 152.37 26.48 81.21 <
-3 16 1 1562.56 1615.34 102.39 o
-2 16 1 2515.85 2388.59 120.05 o
-1 16 1 70.95 24.72 72.38 <
0 16 1 521.22 658.50 88.27 o
-16 17 1 121.90 40.60 77.68 <
-15 17 1 570.65 635.54 77.68 o
-14 17 1 122.87 278.93 79.44 o
-13 17 1 1.34 -37.07 61.79 <
-12 17 1 134.11 137.70 65.32 <
-11 17 1 16.41 -7.06 68.85 <
-10 17 1 20.97 -21.18 63.55 <
-9 17 1 21.20 28.25 63.55 <
-8 17 1 72.69 65.32 81.21 <
-7 17 1 1.80 183.60 82.97 <
-6 17 1 102.79 188.90 125.34 <
-5 17 1 1.14 -21.18 84.74 <
-4 17 1 15.01 61.79 90.04 <
-3 17 1 872.82 766.18 107.69 o
-2 17 1 194.61 91.80 93.57 <
-1 17 1 64.62 44.14 93.57 <
0 17 1 35.76 10.59 97.10 <
-16 18 1 1892.19 1806.01 111.22 o
-15 18 1 28.55 127.11 68.85 <
-14 18 1 158.99 225.97 68.85 o
-13 18 1 40.96 75.91 77.68 <
-12 18 1 1979.72 2153.79 120.05 o
-11 18 1 980.37 1068.07 95.33 o
-10 18 1 81.15 158.89 72.38 <
-9 18 1 25.52 86.50 88.27 <
-8 18 1 1588.18 1528.84 125.34 o
-7 18 1 1141.64 1073.37 116.52 o
-6 18 1 18.92 72.38 86.50 <
-5 18 1 23.60 38.84 90.04 <
-4 18 1 757.39 444.88 105.92 o
-3 18 1 846.41 658.50 112.99 o
-2 18 1 60.68 197.73 102.39 <
-15 19 1 795.56 720.28 95.33 o
-14 19 1 569.11 605.53 114.75 o
-13 19 1 342.33 347.79 90.04 o
-12 19 1 1244.60 1272.86 105.92 o
-11 19 1 496.83 300.12 105.92 <
-10 19 1 1297.93 1495.30 125.34 o
-9 19 1 283.23 143.00 95.33 <
-8 19 1 1278.95 1371.72 125.34 o
-7 19 1 22.56 -75.91 90.04 <
-6 19 1 885.88 835.04 112.99 o
-5 19 1 0.69 -74.15 88.27 <
-4 19 1 1974.89 1910.17 194.19 o
-12 20 1 19.42 -51.20 105.92 <
-11 20 1 1749.74 1740.69 137.70 o
-10 20 1 287.99 291.29 86.50 o
-9 20 1 246.49 255.98 100.63 <
-8 20 1 30.64 -98.86 91.80 <
0 0 2 52268.80 51698.10 534.92 o
0 1 2 26837.50 26963.00 148.29 o
-1 2 2 50034.20 49210.60 293.06 o
0 2 2 2524.44 2775.21 24.72 o
-2 3 2 23.25 -7.06 8.83 <
-1 3 2 1632.54 1922.52 26.48 o
0 3 2 10886.80 11392.20 91.80 o
-3 4 2 8094.42 8385.67 77.68 o
-2 4 2 59860.00 58733.20 492.55 o
-1 4 2 24600.90 25236.40 201.26 o
0 4 2 67440.30 67320.10 522.56 o
-4 5 2 3043.75 3105.35 42.37 o
-3 5 2 2021.67 2007.26 42.37 o
-2 5 2 1548.74 1565.91 31.78 o
-1 5 2 1317.30 1392.90 30.01 o
0 5 2 50801.20 51032.50 400.75 o
-5 6 2 149.79 150.06 17.65 o
-4 6 2 1668.21 1581.80 30.01 o
-3 6 2 34599.20 33721.00 296.59 o
-2 6 2 34.95 49.43 19.42 <
-1 6 2 7152.06 7317.60 91.80 o
0 6 2 16811.60 16940.80 118.28 o
-6 7 2 1187.08 1218.13 24.72 o
-5 7 2 16101.90 15925.70 118.28 o
-4 7 2 1754.62 1758.34 42.37 o
-3 7 2 3138.60 3126.53 40.60 o
-2 7 2 43390.60 42189.60 282.46 o
-1 7 2 1795.73 1788.35 31.78 o
0 7 2 1465.96 1497.06 30.01 o
-7 8 2 19347.40 19020.50 123.58 o
-6 8 2 1459.15 1490.00 30.01 o
-5 8 2 25611.40 24447.30 194.19 o
-4 8 2 1232.89 1211.07 31.78 o
-3 8 2 6856.60 6819.76 65.32 o
-2 8 2 520.10 527.86 21.18 o
-1 8 2 405.19 407.81 21.18 o
0 8 2 26938.00 26555.20 173.01 o
-8 9 2 2588.56 2593.38 42.37 o
-7 9 2 241.27 252.45 21.18 o
-6 9 2 5760.13 5651.06 58.26 o
-5 9 2 28325.00 27390.20 185.37 o
-4 9 2 12055.50 11858.20 100.63 o
-3 9 2 21161.30 20505.20 153.59 o
-2 9 2 1226.43 1232.25 30.01 o
-1 9 2 26283.10 26166.80 181.84 o
0 9 2 39.72 30.01 19.42 <
-9 10 2 502.66 534.92 28.25 o
-8 10 2 12325.40 12343.70 107.69 o
-7 10 2 255.07 282.46 24.72 o
-6 10 2 2573.51 2559.84 42.37 o
-5 10 2 3628.30 3574.94 51.20 o
-4 10 2 5.57 0.00 19.42 <
-3 10 2 174.23 199.49 22.95 o
-2 10 2 6446.98 6320.15 70.62 o
-1 10 2 7528.47 7329.96 79.44 o
0 10 2 1334.62 1361.13 38.84 o
-10 11 2 16362.20 16381.20 139.47 o
-9 11 2 234.74 250.69 26.48 o
-8 11 2 682.44 741.47 33.54 o
-7 11 2 9664.98 9462.57 88.27 o
-6 11 2 62.77 67.09 21.18 o
-5 11 2 131.15 165.95 24.72 o
-4 11 2 7066.83 7061.62 77.68 o
-3 11 2 8.79 -1.77 24.72 <
-2 11 2 432.07 451.94 31.78 o
-1 11 2 5555.57 5492.17 70.62 o
0 11 2 96.94 97.10 26.48 o
-11 12 2 66.02 67.09 28.25 <
-10 12 2 860.57 905.65 37.07 o
-9 12 2 0.83 28.25 30.01 <
-8 12 2 9261.55 9451.97 97.10 o
-7 12 2 49.12 58.26 24.72 <
-6 12 2 10399.10 10288.80 100.63 o
-5 12 2 5591.42 5502.76 70.62 o
-4 12 2 8453.40 8368.01 84.74 o
-3 12 2 6893.72 6923.91 86.50 o
-2 12 2 429.68 444.88 33.54 o
-1 12 2 1142.19 1182.82 44.14 o
0 12 2 471.45 564.93 45.90 o
-12 13 2 143.80 218.91 61.79 o
-11 13 2 5052.08 5040.23 104.16 o
-10 13 2 4388.68 4385.26 88.27 o
-9 13 2 17750.60 17943.60 153.59 o
-8 13 2 543.46 504.91 35.31 o
-7 13 2 282.95 264.81 30.01 o
-6 13 2 6573.17 6441.96 79.44 o
-5 13 2 1344.11 1392.90 40.60 o
-4 13 2 7029.25 7167.54 90.04 o
-3 13 2 131.59 130.64 33.54 o
-2 13 2 3383.53 3331.32 81.21 o
-1 13 2 14358.90 13883.10 204.79 o
0 13 2 7673.06 7880.76 178.31 o
-13 14 2 3527.42 3509.62 130.64 o
-12 14 2 588.40 642.61 63.55 o
-11 14 2 74.25 95.33 51.20 <
-10 14 2 1342.13 1594.16 75.91 o
-9 14 2 1018.79 948.02 63.55 o
-8 14 2 322.29 194.19 70.62 <
-7 14 2 9011.12 9158.92 127.11 o
-6 14 2 2345.33 2441.55 77.68 o
-5 14 2 3862.42 3952.74 109.46 o
-4 14 2 5676.48 5561.02 123.58 o
-3 14 2 147.40 81.21 45.90 <
-2 14 2 1889.58 1883.69 84.74 o
-1 14 2 68.55 38.84 52.96 <
0 14 2 388.32 376.03 63.55 o
-14 15 2 9.71 63.55 58.26 <
-13 15 2 131.25 188.90 67.09 <
-12 15 2 3570.36 3785.03 111.22 o
-11 15 2 204.80 275.40 56.49 o
-10 15 2 80.73 84.74 61.79 <
-9 15 2 5417.99 5340.35 143.00 o
-8 15 2 547.31 587.88 84.74 o
-7 15 2 39.63 79.44 56.49 <
-6 15 2 3706.47 3899.78 127.11 o
-5 15 2 1.10 26.48 51.20 <
-4 15 2 55.73 104.16 52.96 <
-3 15 2 5148.51 5063.18 144.76 o
-2 15 2 5.07 -118.28 61.79 <
-1 15 2 52.34 -10.59 56.49 <
0 15 2 3897.58 3846.82 121.81 o
-15 16 2 127.52 111.22 63.55 <
-14 16 2 1026.45 1099.85 81.21 o
-13 16 2 4060.98 4332.30 125.34 o
-12 16 2 1831.08 1966.66 90.04 o
-11 16 2 4895.67 4913.12 148.29 o
-10 16 2 12.38 54.73 63.55 <
-9 16 2 4022.25 4235.20 137.70 o
-8 16 2 683.66 649.67 88.27 o
-7 16 2 32.27 72.38 61.79 <
-6 16 2 7.09 22.95 61.79 <
-5 16 2 695.34 707.93 79.44 o
-4 16 2 2549.45 2639.28 148.29 o
-3 16 2 20.18 102.39 86.50 <
-2 16 2 4665.34 4658.90 151.82 o
-1 16 2 848.42 921.54 95.33 o
0 16 2 438.40 430.76 86.50 o
-16 17 2 2028.55 1994.91 116.52 o
-15 17 2 83.02 67.09 67.09 <
-14 17 2 4156.16 4196.37 127.11 o
-13 17 2 280.96 245.39 75.91 o
-12 17 2 50.46 49.43 61.79 <
-11 17 2 0.10 -141.23 67.09 <
-10 17 2 35.13 -5.30 68.85 <
-9 17 2 7321.70 7721.88 180.07 o
-8 17 2 884.18 817.38 84.74 o
-7 17 2 4556.95 4597.11 178.31 o
-6 17 2 1121.14 1039.82 112.99 o
-5 17 2 5905.08 5772.87 195.96 o
-4 17 2 251.81 224.21 95.33 <
-3 17 2 101.95 91.80 90.04 <
-2 17 2 348.04 174.77 95.33 <
-1 17 2 147.70 112.99 100.63 <
0 17 2 1962.05 1581.80 132.40 o
-16 18 2 49.78 35.31 82.97 <
-15 18 2 1292.44 1276.39 104.16 o
-14 18 2 2319.04 2266.78 150.06 o
-13 18 2 121.18 -56.49 100.63 <
-12 18 2 3145.41 3198.91 120.05 o
-11 18 2 282.90 217.15 81.21 <
-10 18 2 2418.26 2570.43 121.81 o
-9 18 2 82.63 114.75 74.15 <
-8 18 2 40.55 -28.25 84.74 <
-7 18 2 5.67 -63.55 86.50 <
-6 18 2 40.57 -28.25 121.81 <
-5 18 2 2159.12 1504.12 130.64 o
-4 18 2 310.29 160.65 98.86 <
-3 18 2 2564.64 2498.05 153.59 o
-2 18 2 1057.26 670.85 114.75 o
-15 19 2 6.46 97.10 109.46 <
-14 19 2 2691.54 2561.60 158.89 o
-13 19 2 21.38 -26.48 100.63 <
-12 19 2 0.35 72.38 70.62 <
-11 19 2 2445.62 2697.54 128.87 o
-10 19 2 2.58 234.80 82.97 <
-9 19 2 58.26 107.69 91.80 <
-8 19 2 3659.70 3170.67 164.18 o
-7 19 2 54.64 3.53 91.80 <
-6 19 2 237.76 241.86 97.10 <
-5 19 2 1791.16 1588.86 180.07 o
-4 19 2 11.83 35.31 91.80 <
-11 20 2 1.23 -60.02 97.10 <
-10 20 2 2231.76 2120.25 148.29 o
-9 20 2 749.40 670.85 91.80 o
0 1 3 332.06 381.33 12.36 o
-1 2 3 18504.10 19557.10 148.29 o
0 2 3 2845.95 3140.65 31.78 o
-2 3 3 51853.30 53110.40 361.91 o
-1 3 3 26906.80 27706.20 194.19 o
0 3 3 25.16 26.48 12.36 <
-3 4 3 44.47 51.20 15.89 o
-2 4 3 3612.97 3777.96 44.14 o
-1 4 3 6.11 1.77 10.59 <
0 4 3 5.61 -37.07 12.36 <
-4 5 3 2656.28 2697.54 40.60 o
-3 5 3 19775.40 20496.30 150.06 o
-2 5 3 6240.59 6237.17 63.55 o
-1 5 3 1070.26 1013.34 22.95 o
0 5 3 442.49 430.76 15.89 o
-5 6 3 10526.30 10362.90 75.91 o
-4 6 3 3898.17 3899.78 44.14 o
-3 6 3 17655.50 17549.90 128.88 o
-2 6 3 2449.00 2438.02 33.54 o
-1 6 3 2084.71 2129.08 30.01 o
0 6 3 976.64 976.27 21.18 o
-6 7 3 13449.90 13339.40 95.33 o
-5 7 3 6394.28 6131.25 65.32 o
-4 7 3 13231.10 12861.00 102.39 o
-3 7 3 30.26 45.90 15.89 <
-2 7 3 13603.80 13477.10 91.80 o
-1 7 3 8449.13 8360.95 63.55 o
0 7 3 755.31 778.54 21.18 o
-7 8 3 2946.42 2851.13 38.84 o
-6 8 3 5376.82 5209.71 54.73 o
-5 8 3 496.15 511.97 22.95 o
-4 8 3 54.25 58.26 17.65 o
-3 8 3 3319.12 3311.90 44.14 o
-2 8 3 8526.59 8563.97 72.38 o
-1 8 3 405.81 418.40 19.42 o
0 8 3 154.09 139.47 19.42 o
-8 9 3 566.41 575.52 24.72 o
-7 9 3 5080.03 5061.41 54.73 o
-6 9 3 2391.81 2383.30 38.84 o
-5 9 3 452.20 501.38 22.95 o
-4 9 3 1469.30 1408.79 31.78 o
-3 9 3 1051.86 1069.83 30.01 o
-2 9 3 574.71 573.76 22.95 o
-1 9 3 99.05 98.86 19.42 o
0 9 3 441.64 453.71 26.48 o
-9 10 3 593.67 632.02 28.25 o
-8 10 3 10854.30 10848.40 95.33 o
-7 10 3 9157.00 8985.91 79.44 o
-6 10 3 98.19 97.10 21.18 o
-5 10 3 920.39 962.15 30.01 o
-4 10 3 6866.07 6885.08 70.62 o
-3 10 3 8431.30 8154.40 77.68 o
-2 10 3 1508.93 1512.95 37.07 o
-1 10 3 586.96 617.89 30.01 o
0 10 3 2065.46 2037.28 44.14 o
-10 11 3 13741.20 13849.60 125.34 o
-9 11 3 50.57 26.48 24.72 <
-8 11 3 2038.45 2001.97 42.37 o
-7 11 3 1556.25 1590.63 38.84 o
-6 11 3 10517.10 10271.10 98.86 o
-5 11 3 1058.62 1085.72 35.31 o
-4 11 3 4266.19 4259.92 58.26 o
-3 11 3 219.49 158.89 26.48 o
-2 11 3 7710.49 7684.80 81.21 o
-1 11 3 2063.83 2092.00 45.90 o
0 11 3 1060.54 1094.55 40.60 o
-11 12 3 1922.50 1973.72 65.32 o
-10 12 3 642.11 626.72 40.60 o
-9 12 3 216.93 225.97 31.78 o
-8 12 3 55.22 84.74 26.48 o
-7 12 3 2362.55 2547.48 56.49 o
-6 12 3 3326.53 3264.23 60.02 o
-5 12 3 186.53 250.69 30.01 o
-4 12 3 552.33 508.44 37.07 o
-3 12 3 3495.47 3520.22 68.85 o
-2 12 3 4249.91 4184.01 75.91 o
-1 12 3 133.17 162.42 38.84 o
0 12 3 88.45 65.32 38.84 <
-12 13 3 386.05 496.08 47.67 o
-11 13 3 1397.83 1338.18 58.26 o
-10 13 3 6.01 31.78 37.07 <
-9 13 3 30.90 42.37 40.60 <
-8 13 3 163.38 160.65 30.01 o
-7 13 3 117.93 158.89 30.01 o
-6 13 3 119.49 114.75 30.01 o
-5 13 3 0.31 -15.89 30.01 <
-4 13 3 2.47 -30.01 35.31 <
-3 13 3 85.07 84.74 42.37 <
-2 13 3 22.10 54.73 49.43 <
-1 13 3 22.54 3.53 49.43 <
0 13 3 135.23 143.00 49.43 <
-13 14 3 13.05 14.12 54.73 <
-12 14 3 5474.89 5679.30 105.92 o
-11 14 3 1687.48 1791.89 65.32 o
-10 14 3 920.41 888.00 58.26 o
-9 14 3 249.96 261.28 52.96 o
-8 14 3 2899.46 2994.13 98.86 o
-7 14 3 3599.15 3763.84 109.46 o
-6 14 3 13.20 33.54 47.67 <
-5 14 3 382.61 421.93 54.73 o
-4 14 3 2136.57 1977.25 84.74 o
-3 14 3 2171.40 2127.31 88.27 o
-2 14 3 28.33 102.39 52.96 <
-1 14 3 95.13 68.85 54.73 <
0 14 3 512.20 617.89 79.44 o
-14 15 3 1697.32 1733.63 105.92 o
-13 15 3 260.83 128.87 60.02 <
-12 15 3 1676.86 1731.86 75.91 o
-11 15 3 1454.35 1511.19 81.21 o
-10 15 3 2676.15 2889.97 102.39 o
-9 15 3 157.75 183.60 56.49 o
-8 15 3 2253.77 2169.68 88.27 o
-7 15 3 37.90 75.91 52.96 <
-6 15 3 2518.39 2446.85 93.57 o
-5 15 3 7.89 15.89 51.20 <
-4 15 3 4032.28 4132.81 116.52 o
-3 15 3 521.77 556.10 65.32 o
-2 15 3 784.54 757.36 68.85 o
-1 15 3 389.83 381.33 77.68 o
0 15 3 1812.78 1740.69 109.46 o
-15 16 3 1566.95 1597.69 107.69 o
-14 16 3 125.62 93.57 74.15 <
-13 16 3 58.86 45.90 70.62 <
-12 16 3 85.67 95.33 60.02 <
-11 16 3 2563.32 2752.26 123.58 o
-10 16 3 2030.07 2012.56 109.46 o
-9 16 3 270.61 192.43 70.62 <
-8 16 3 90.70 121.81 82.97 <
-7 16 3 2994.41 3145.95 107.69 o
-6 16 3 2630.00 2778.75 104.16 o
-5 16 3 19.70 3.53 54.73 <
-4 16 3 176.89 134.17 61.79 <
-3 16 3 1110.88 1165.17 95.33 o
-2 16 3 2380.31 2339.16 118.28 o
-1 16 3 44.97 150.06 77.68 <
0 16 3 632.21 746.77 93.57 o
-16 17 3 142.15 217.15 84.74 <
-15 17 3 443.39 510.20 90.04 o
-14 17 3 65.47 63.55 77.68 <
-13 17 3 0.28 188.90 104.16 <
-12 17 3 112.82 120.05 75.91 <
-11 17 3 0.76 -60.02 70.62 <
-10 17 3 43.14 72.38 75.91 <
-9 17 3 44.76 118.28 61.79 <
-8 17 3 79.65 98.86 88.27 <
-7 17 3 1.28 21.18 67.09 <
-6 17 3 117.89 104.16 72.38 <
-5 17 3 3.11 -26.48 68.85 <
-4 17 3 7.15 40.60 90.04 <
-3 17 3 1041.81 1023.93 121.81 o
-2 17 3 109.01 17.65 81.21 <
-1 17 3 20.98 21.18 79.44 <
0 17 3 54.00 105.92 84.74 <
-16 18 3 2016.97 2118.48 120.05 o
-15 18 3 70.45 35.31 105.92 <
-14 18 3 223.74 185.37 107.69 <
-13 18 3 80.36 75.91 102.39 <
-12 18 3 1763.02 1749.52 112.99 o
-11 18 3 656.79 573.76 88.27 o
-10 18 3 17.01 65.32 79.44 <
-9 18 3 12.69 15.89 65.32 <
-8 18 3 1132.72 1267.56 97.10 o
-7 18 3 1446.58 1504.12 127.11 o
-6 18 3 9.92 -56.49 93.57 <
-5 18 3 1.07 22.95 95.33 <
-4 18 3 778.55 695.57 116.52 o
-3 18 3 723.22 674.38 116.52 o
-2 18 3 32.75 -60.02 98.86 <
-14 19 3 633.94 656.73 121.81 o
-13 19 3 353.20 390.15 114.75 o
-12 19 3 1368.99 1461.75 111.22 o
-11 19 3 488.89 476.66 90.04 o
-10 19 3 1280.71 1322.29 105.92 o
-9 19 3 264.72 354.85 88.27 o
-8 19 3 1207.09 1073.37 100.63 o
-7 19 3 17.64 -10.59 90.04 <
-6 19 3 839.78 667.32 158.89 o
-5 19 3 0.55 17.65 127.11 <
0 0 4 190804.00 174169.00 2056.70 o
0 1 4 45.18 61.79 10.59 o
-1 2 4 2357.80 2464.50 30.01 o
0 2 4 8672.74 8599.28 86.50 o
-2 3 4 18012.30 18282.50 151.82 o
-1 3 4 17329.40 17516.30 148.29 o
0 3 4 22090.40 22595.40 146.53 o
-3 4 4 2204.55 2182.04 30.01 o
-2 4 4 402.67 423.70 17.65 o
-1 4 4 677.53 640.84 19.42 o
0 4 4 11172.10 11171.50 82.97 o
-4 5 4 24358.10 24261.90 148.29 o
-3 5 4 5206.16 5386.25 49.43 o
-2 5 4 5999.50 5945.88 47.67 o
-1 5 4 51021.40 49927.40 298.35 o
0 5 4 7985.61 7737.77 65.32 o
-5 6 4 9500.85 9441.38 74.15 o
-4 6 4 14816.70 14670.50 97.10 o
-3 6 4 640.93 640.84 21.18 o
-2 6 4 10308.20 10479.40 75.91 o
-1 6 4 485.59 508.44 19.42 o
0 6 4 3569.51 3428.41 38.84 o
-6 7 4 14768.20 14393.30 109.46 o
-5 7 4 4317.67 4249.33 47.67 o
-4 7 4 3289.44 3190.08 40.60 o
-3 7 4 2008.50 2021.39 33.54 o
-2 7 4 34.86 45.90 15.89 <
-1 7 4 15081.20 14949.40 102.39 o
0 7 4 2881.33 2865.25 40.60 o
-7 8 4 1377.96 1329.35 30.01 o
-6 8 4 2860.77 2870.55 38.84 o
-5 8 4 2965.67 2930.57 40.60 o
-4 8 4 37764.60 36868.70 231.27 o
-3 8 4 131.87 143.00 19.42 o
-2 8 4 10816.00 10837.80 82.97 o
-1 8 4 18147.70 18070.70 121.81 o
0 8 4 5784.57 5776.40 60.02 o
-8 9 4 449.34 414.87 26.48 o
-7 9 4 8284.58 8090.85 74.15 o
-6 9 4 7077.93 6932.74 67.09 o
-5 9 4 6276.00 6164.79 63.55 o
-4 9 4 329.18 287.76 24.72 o
-3 9 4 316.84 363.67 24.72 o
-2 9 4 2023.24 2028.45 44.14 o
-1 9 4 4979.38 4957.25 61.79 o
0 9 4 20123.80 20205.00 160.65 o
-9 10 4 2239.89 2286.20 47.67 o
-8 10 4 936.40 949.79 31.78 o
-7 10 4 7607.24 7568.29 72.38 o
-6 10 4 460.58 503.14 26.48 o
-5 10 4 7743.24 7796.02 81.21 o
-4 10 4 5141.05 5098.49 65.32 o
-3 10 4 5891.51 5931.76 70.62 o
-2 10 4 3998.22 4011.00 63.55 o
-1 10 4 114.21 143.00 28.25 o
0 10 4 955.60 909.18 42.37 o
-10 11 4 9.23 44.14 30.01 <
-9 11 4 2319.79 2450.38 49.43 o
-8 11 4 1429.64 1392.90 38.84 o
-7 11 4 1244.56 1239.31 35.31 o
-6 11 4 5503.58 5531.01 68.85 o
-5 11 4 6349.52 6205.40 74.15 o
-4 11 4 2586.27 2658.70 52.96 o
-3 11 4 3047.98 3098.28 60.02 o
-2 11 4 6755.72 6750.90 91.80 o
-1 11 4 2265.56 2307.38 60.02 o
0 11 4 3476.69 3428.41 90.04 o
-11 12 4 2167.71 2190.87 75.91 o
-10 12 4 807.00 797.96 45.90 o
-9 12 4 13766.20 13584.80 127.11 o
-8 12 4 1004.94 965.68 37.07 o
-7 12 4 4544.64 4591.82 68.85 o
-6 12 4 672.69 718.52 37.07 o
-5 12 4 90.22 130.64 30.01 o
-4 12 4 534.31 545.51 37.07 o
-3 12 4 1176.53 1239.31 47.67 o
-2 12 4 5704.11 5751.69 111.22 o
-1 12 4 396.46 360.14 49.43 o
0 12 4 6411.27 6563.77 121.81 o
-12 13 4 1329.23 1329.35 67.09 o
-11 13 4 908.83 909.18 60.02 o
-10 13 4 92.59 121.81 45.90 <
-9 13 4 4906.90 4867.22 105.92 o
-8 13 4 6665.28 6784.45 95.33 o
-7 13 4 4400.83 4621.83 82.97 o
-6 13 4 547.27 490.78 49.43 o
-5 13 4 19057.40 18745.10 250.69 o
-4 13 4 664.71 639.08 61.79 o
-3 13 4 1663.01 1555.32 77.68 o
-2 13 4 1773.63 1779.53 82.97 o
-1 13 4 4070.24 4148.70 118.28 o
0 13 4 1114.99 1113.97 67.09 o
-13 14 4 728.55 697.34 60.02 o
-12 14 4 4163.36 4198.13 105.92 o
-11 14 4 1472.95 1542.96 72.38 o
-10 14 4 3268.09 3380.75 97.10 o
-9 14 4 409.44 543.74 63.55 o
-8 14 4 4565.30 4607.70 105.92 o
-7 14 4 112.47 72.38 51.20 <
-6 14 4 21.78 8.83 49.43 <
-5 14 4 38.39 38.84 51.20 <
-4 14 4 747.49 757.36 67.09 o
-3 14 4 3008.49 3059.45 104.16 o
-2 14 4 34.09 61.79 56.49 <
-1 14 4 8453.85 8269.15 162.42 o
0 14 4 456.67 510.20 68.85 o
-14 15 4 1395.87 1369.95 102.39 o
-13 15 4 700.97 857.99 67.09 o
-12 15 4 770.38 812.09 63.55 o
-11 15 4 949.51 997.45 74.15 o
-10 15 4 2575.36 2533.35 98.86 o
-9 15 4 434.81 425.46 65.32 o
-8 15 4 582.65 559.63 58.26 o
-7 15 4 2699.37 3040.03 105.92 o
-6 15 4 829.12 898.59 72.38 o
-5 15 4 1958.45 1917.23 90.04 o
-4 15 4 2502.57 2686.94 102.39 o
-3 15 4 171.18 229.50 61.79 o
-2 15 4 1255.99 1135.15 79.44 o
-1 15 4 906.68 995.69 79.44 o
0 15 4 143.76 173.01 77.68 <
-15 16 4 1843.18 1866.03 114.75 o
-14 16 4 1586.00 1567.68 109.46 o
-13 16 4 487.94 510.20 70.62 o
-12 16 4 0.78 -37.07 70.62 <
-11 16 4 150.37 121.81 63.55 <
-10 16 4 1141.99 1161.64 79.44 o
-9 16 4 321.92 298.35 65.32 o
-8 16 4 3190.68 3197.15 100.63 o
-7 16 4 1770.84 1684.20 88.27 o
-6 16 4 1545.36 1408.79 84.74 o
-5 16 4 2743.07 2663.99 104.16 o
-4 16 4 103.06 86.50 61.79 <
-3 16 4 1299.62 1242.84 84.74 o
-2 16 4 38.90 17.65 74.15 <
-1 16 4 33.76 -63.55 77.68 <
0 16 4 201.54 180.07 82.97 <
-16 17 4 376.72 328.36 88.27 o
-15 17 4 556.02 423.70 86.50 o
-14 17 4 700.49 842.10 125.34 o
-13 17 4 7024.06 7079.27 218.91 o
-12 17 4 836.59 803.26 93.57 o
-11 17 4 1389.22 1387.61 105.92 o
-10 17 4 4432.40 4217.55 185.37 o
-9 17 4 1789.29 1537.67 105.92 o
-8 17 4 82.27 157.12 77.68 <
-7 17 4 114.44 137.70 58.26 <
-6 17 4 15.38 21.18 63.55 <
-5 17 4 1363.10 1179.29 84.74 o
-4 17 4 2955.64 3055.91 116.52 o
-3 17 4 1764.57 1693.02 112.99 o
-2 17 4 243.53 218.91 86.50 <
-1 17 4 5079.10 4927.24 164.18 o
-15 18 4 596.26 476.66 114.75 o
-14 18 4 186.52 107.69 109.46 <
-13 18 4 402.92 337.19 88.27 o
-12 18 4 124.38 162.42 84.74 <
-11 18 4 297.16 291.29 88.27 o
-10 18 4 131.19 197.73 86.50 <
-9 18 4 3197.50 3244.81 169.48 o
-8 18 4 1484.60 1497.06 109.46 o
-7 18 4 1112.09 916.24 98.86 o
-6 18 4 4822.30 4877.81 157.12 o
-5 18 4 208.46 374.27 104.16 o
-4 18 4 277.16 144.76 104.16 <
-3 18 4 137.24 37.07 102.39 <
-13 19 4 1124.92 1094.55 104.16 o
-12 19 4 922.57 888.00 100.63 o
-11 19 4 231.54 107.69 82.97 <
-10 19 4 788.66 859.75 100.63 o
-9 19 4 665.97 683.21 97.10 o
-8 19 4 19.41 0.00 70.62 <
-7 19 4 505.83 552.57 118.28 o
-6 19 4 322.82 333.66 112.99 <
0 1 5 70.91 70.62 10.59 o
-1 2 5 4004.19 4162.82 35.31 o
0 2 5 24.15 14.12 14.12 <
-2 3 5 26905.40 26964.80 194.19 o
-1 3 5 16855.40 16993.80 105.92 o
0 3 5 38.32 45.90 14.12 o
-3 4 5 1865.12 1761.87 28.25 o
-2 4 5 4026.74 4116.92 44.14 o
-1 4 5 27.34 37.07 14.12 <
0 4 5 204.80 188.90 14.12 o
-4 5 5 1033.62 1000.98 22.95 o
-3 5 5 12678.20 12650.90 91.80 o
-2 5 5 8293.81 8352.13 70.62 o
-1 5 5 36.44 49.43 14.12 o
0 5 5 78.24 79.44 15.89 o
-5 6 5 6672.74 6588.49 60.02 o
-4 6 5 2485.37 2413.31 38.84 o
-3 6 5 18514.60 18379.60 120.05 o
-2 6 5 307.03 321.30 19.42 o
-1 6 5 3212.13 3170.67 42.37 o
0 6 5 1497.09 1412.32 31.78 o
-6 7 5 12583.30 12373.70 100.63 o
-5 7 5 3778.95 3638.50 49.43 o
-4 7 5 6583.08 6380.17 61.79 o
-3 7 5 37.90 60.02 17.65 o
-2 7 5 9694.27 9702.66 79.44 o
-1 7 5 4558.10 4597.11 54.73 o
0 7 5 1582.65 1574.74 38.84 o
-7 8 5 2596.52 2547.48 44.14 o
-6 8 5 1292.51 1294.04 33.54 o
-5 8 5 498.93 497.84 24.72 o
-4 8 5 768.82 767.95 28.25 o
-3 8 5 1777.07 1738.92 37.07 o
-2 8 5 7733.55 7739.53 79.44 o
-1 8 5 1105.48 1124.56 35.31 o
0 8 5 181.20 180.07 24.72 o
-8 9 5 620.27 665.56 30.01 o
-7 9 5 3523.54 3534.34 52.96 o
-6 9 5 2796.19 2794.63 47.67 o
-5 9 5 290.51 289.53 24.72 o
-4 9 5 1339.67 1341.71 35.31 o
-3 9 5 2101.04 2084.94 47.67 o
-2 9 5 182.84 125.34 26.48 o
-1 9 5 9.31 -10.59 24.72 <
0 9 5 244.18 261.28 28.25 o
-9 10 5 206.54 197.73 26.48 o
-8 10 5 6643.45 6636.15 75.91 o
-7 10 5 5776.83 5801.12 68.85 o
-6 10 5 101.40 160.65 24.72 o
-5 10 5 894.65 875.64 35.31 o
-4 10 5 6417.92 6456.08 79.44 o
-3 10 5 7025.98 7186.96 93.57 o
-2 10 5 1175.00 1105.14 44.14 o
-1 10 5 32.69 49.43 28.25 <
0 10 5 1598.73 1671.84 45.90 o
-10 11 5 9130.73 9176.57 118.28 o
-9 11 5 15.40 -3.53 26.48 <
-8 11 5 711.85 670.85 33.54 o
-7 11 5 891.87 923.31 37.07 o
-6 11 5 6736.81 6720.89 81.21 o
-5 11 5 2325.08 2328.57 51.20 o
-4 11 5 2868.22 2909.39 63.55 o
-3 11 5 282.81 331.90 35.31 o
-2 11 5 7143.71 7206.38 97.10 o
-1 11 5 1228.83 1313.46 63.55 o
0 11 5 1292.33 1324.05 65.32 o
-11 12 5 1675.40 1634.76 70.62 o
-10 12 5 686.40 637.31 54.73 o
-9 12 5 169.21 194.19 37.07 o
-8 12 5 11.54 3.53 30.01 <
-7 12 5 1280.41 1285.21 42.37 o
-6 12 5 2669.85 2626.92 54.73 o
-5 12 5 154.16 178.31 33.54 o
-4 12 5 584.03 520.79 45.90 o
-3 12 5 3404.98 3488.44 95.33 o
-2 12 5 4198.51 4342.89 100.63 o
-1 12 5 197.30 245.39 49.43 o
0 12 5 37.53 37.07 45.90 <
-12 13 5 222.73 231.27 52.96 o
-11 13 5 672.61 741.47 60.02 o
-10 13 5 109.60 116.52 45.90 <
-9 13 5 95.58 128.87 54.73 <
-8 13 5 24.26 35.31 51.20 <
-7 13 5 303.61 194.19 47.67 o
-6 13 5 45.26 61.79 44.14 <
-5 13 5 13.31 49.43 51.20 <
-4 13 5 136.26 160.65 47.67 o
-3 13 5 3.39 -58.26 44.14 <
-2 13 5 0.28 90.04 47.67 <
-1 13 5 0.42 -8.83 47.67 <
0 13 5 3.55 30.01 47.67 <
-13 14 5 34.36 24.72 51.20 <
-12 14 5 4581.14 4480.60 111.22 o
-11 14 5 1337.32 1205.77 68.85 o
-10 14 5 398.18 406.04 63.55 o
-9 14 5 106.54 233.03 58.26 o
-8 14 5 1783.58 1710.68 86.50 o
-7 14 5 3400.44 3232.45 95.33 o
-6 14 5 37.31 91.80 49.43 <
-5 14 5 552.90 515.50 63.55 o
-4 14 5 2046.15 2227.94 95.33 o
-3 14 5 2241.53 2159.09 95.33 o
-2 14 5 44.64 54.73 56.49 <
-1 14 5 50.50 -47.67 60.02 <
0 14 5 580.80 545.51 72.38 o
-14 15 5 1459.17 1474.11 90.04 o
-13 15 5 161.61 203.02 56.49 o
-12 15 5 1101.76 1117.50 81.21 o
-11 15 5 880.85 737.94 72.38 o
-10 15 5 2342.55 2245.59 97.10 o
-9 15 5 71.81 90.04 60.02 <
-8 15 5 2754.95 2805.23 91.80 o
-7 15 5 8.23 56.49 51.20 <
-6 15 5 2835.04 2856.42 95.33 o
-5 15 5 52.83 31.78 56.49 <
-4 15 5 2815.70 2872.31 105.92 o
-3 15 5 227.70 248.92 65.32 o
-2 15 5 500.37 437.82 68.85 o
-1 15 5 392.96 367.20 72.38 o
0 15 5 1860.72 1986.08 100.63 o
-15 16 5 1766.29 1798.95 114.75 o
-14 16 5 51.42 -14.12 67.09 <
-13 16 5 1.75 -19.42 63.55 <
-12 16 5 341.52 294.82 68.85 o
-11 16 5 2143.03 2178.51 100.63 o
-10 16 5 1290.01 1313.46 86.50 o
-9 16 5 73.47 100.63 63.55 <
-8 16 5 41.08 65.32 54.73 <
-7 16 5 2144.29 2152.03 88.27 o
-6 16 5 2325.20 2220.88 90.04 o
-5 16 5 0.88 -7.06 56.49 <
-4 16 5 118.82 164.18 65.32 <
-3 16 5 1367.88 1315.23 88.27 o
-2 16 5 1857.92 1927.82 98.86 o
-1 16 5 50.27 58.26 68.85 <
0 16 5 296.10 331.90 86.50 o
-15 17 5 540.65 586.11 118.28 o
-14 17 5 87.57 0.00 107.69 <
-13 17 5 1.81 -14.12 77.68 <
-12 17 5 137.74 31.78 79.44 <
-11 17 5 17.86 67.09 67.09 <
-10 17 5 11.78 22.95 65.32 <
-9 17 5 15.89 -28.25 67.09 <
-8 17 5 71.22 33.54 67.09 <
-7 17 5 0.94 -38.84 58.26 <
-6 17 5 46.15 -14.12 60.02 <
-5 17 5 0.02 70.62 60.02 <
-4 17 5 8.69 70.62 61.79 <
-3 17 5 491.92 501.38 77.68 o
-2 17 5 155.49 93.57 82.97 <
-14 18 5 94.82 22.95 109.46 <
-13 18 5 20.07 82.97 84.74 <
-12 18 5 1613.18 1624.17 112.99 o
-11 18 5 903.75 875.64 100.63 o
-10 18 5 104.77 118.28 86.50 <
-9 18 5 23.81 56.49 81.21 <
-8 18 5 1421.06 1417.62 95.33 o
-7 18 5 729.59 778.54 74.15 o
-6 18 5 15.54 -31.78 63.55 <
-5 18 5 29.26 123.58 67.09 <
-4 18 5 494.39 561.40 82.97 o
-10 19 5 929.24 925.07 104.16 o
-9 19 5 213.67 151.82 88.27 <
0 0 6 33524.80 33447.30 489.02 o
0 1 6 9841.60 9847.42 72.38 o
-1 2 6 22305.50 22180.50 135.94 o
0 2 6 2.20 1.77 12.36 <
-2 3 6 1235.09 1283.45 24.72 o
-1 3 6 12.32 8.83 14.12 <
0 3 6 1274.27 1302.87 24.72 o
-3 4 6 986.33 1052.18 22.95 o
-2 4 6 19822.80 19696.60 127.11 o
-1 4 6 14231.80 13971.40 100.63 o
0 4 6 27337.10 27241.90 167.71 o
-4 5 6 876.71 882.70 24.72 o
-3 5 6 91.27 120.05 17.65 o
-2 5 6 130.06 125.34 17.65 o
-1 5 6 729.61 778.54 24.72 o
0 5 6 19213.20 19175.80 127.11 o
-5 6 6 0.39 -12.36 17.65 <
-4 6 6 190.17 227.74 21.18 o
-3 6 6 18024.30 18081.30 127.11 o
-2 6 6 239.87 241.86 21.18 o
-1 6 6 2418.36 2392.12 40.60 o
0 6 6 9669.45 9610.86 81.21 o
-6 7 6 1532.11 1505.89 37.07 o
-5 7 6 5051.10 5098.49 60.02 o
-4 7 6 610.52 646.14 26.48 o
-3 7 6 756.26 736.17 28.25 o
-2 7 6 13849.70 13950.20 111.22 o
-1 7 6 856.89 889.76 30.01 o
0 7 6 184.07 153.59 22.95 o
-7 8 6 8442.43 8450.99 82.97 o
-6 8 6 150.16 139.47 22.95 o
-5 8 6 11693.20 11519.30 100.63 o
-4 8 6 777.44 810.32 31.78 o
-3 8 6 2860.15 2951.76 51.20 o
-2 8 6 270.71 280.70 26.48 o
-1 8 6 78.93 90.04 22.95 o
0 8 6 15775.20 15821.60 135.94 o
-8 9 6 2207.84 2116.72 45.90 o
-7 9 6 556.71 515.50 30.01 o
-6 9 6 2441.35 2522.76 49.43 o
-5 9 6 16644.10 16610.70 139.47 o
-4 9 6 4810.57 4775.42 65.32 o
-3 9 6 11710.60 11791.10 116.52 o
-2 9 6 263.59 316.01 30.01 o
-1 9 6 12380.70 12516.70 116.52 o
0 9 6 229.04 220.68 30.01 o
-9 10 6 140.08 162.42 30.01 o
-8 10 6 6061.10 6083.58 74.15 o
-7 10 6 630.06 679.68 33.54 o
-6 10 6 1809.97 1841.32 45.90 o
-5 10 6 907.43 896.83 37.07 o
-4 10 6 125.28 143.00 30.01 o
-3 10 6 93.52 104.16 30.01 o
-2 10 6 2637.04 2588.08 58.26 o
-1 10 6 2808.38 2914.68 61.79 o
0 10 6 303.12 379.56 40.60 o
-10 11 6 9726.08 9835.06 137.70 o
-9 11 6 55.61 28.25 35.31 <
-8 11 6 256.38 261.28 30.01 o
-7 11 6 5603.63 5546.90 75.91 o
-6 11 6 118.57 162.42 31.78 o
-5 11 6 290.76 335.43 33.54 o
-4 11 6 3274.40 3382.51 70.62 o
-3 11 6 68.59 67.09 33.54 <
-2 11 6 392.08 347.79 49.43 o
-1 11 6 2737.61 2706.36 86.50 o
0 11 6 31.96 81.21 45.90 <
-11 12 6 0.81 -54.73 45.90 <
-10 12 6 254.85 270.11 45.90 o
-9 12 6 303.87 353.08 51.20 o
-8 12 6 5214.97 5294.45 111.22 o
-7 12 6 239.87 241.86 47.67 o
-6 12 6 4917.96 4801.90 97.10 o
-5 12 6 2680.73 2672.82 77.68 o
-4 12 6 4086.22 4032.18 91.80 o
-3 12 6 3448.30 3516.68 90.04 o
-2 12 6 529.74 538.45 56.49 o
-1 12 6 807.03 775.01 61.79 o
0 12 6 26.06 22.95 49.43 <
-12 13 6 45.07 86.50 51.20 <
-11 13 6 3112.00 3207.74 97.10 o
-10 13 6 2443.03 2167.92 95.33 o
-9 13 6 11257.50 11563.40 194.19 o
-8 13 6 293.68 171.24 58.26 <
-7 13 6 209.75 222.44 51.20 o
-6 13 6 4431.64 4459.41 97.10 o
-5 13 6 1012.77 937.43 56.49 o
-4 13 6 3640.24 3823.86 93.57 o
-3 13 6 23.64 79.44 44.14 <
-2 13 6 1992.98 2090.24 82.97 o
-1 13 6 8281.93 8429.80 146.53 o
0 13 6 4275.10 4086.91 107.69 o
-13 14 6 1881.48 1758.34 81.21 o
-12 14 6 349.93 206.55 56.49 o
-11 14 6 1.43 -15.89 58.26 <
-10 14 6 680.89 656.73 70.62 o
-9 14 6 446.98 383.09 67.09 o
-8 14 6 486.11 444.88 67.09 o
-7 14 6 4505.56 4695.97 130.64 o
-6 14 6 1277.54 1226.96 70.62 o
-5 14 6 1875.63 1938.41 82.97 o
-4 14 6 2439.55 2466.27 90.04 o
-3 14 6 159.47 195.96 56.49 o
-2 14 6 805.55 806.79 61.79 o
-1 14 6 128.54 52.96 56.49 <
0 14 6 97.10 -7.06 54.73 <
-14 15 6 23.62 -105.92 54.73 <
-13 15 6 117.67 150.06 68.85 <
-12 15 6 1701.89 1544.73 91.80 o
-11 15 6 12.32 -38.84 61.79 <
-10 15 6 59.46 51.20 61.79 <
-9 15 6 2738.61 2681.65 109.46 o
-8 15 6 100.93 234.80 67.09 o
-7 15 6 79.65 37.07 61.79 <
-6 15 6 2146.48 2097.30 88.27 o
-5 15 6 31.11 30.01 54.73 <
-4 15 6 50.07 58.26 56.49 <
-3 15 6 2906.63 2847.60 98.86 o
-2 15 6 1.31 74.15 58.26 <
-1 15 6 38.96 68.85 67.09 <
0 15 6 2451.62 2708.13 127.11 o
-15 16 6 154.34 90.04 68.85 <
-14 16 6 575.21 434.29 75.91 o
-13 16 6 2668.47 2746.97 127.11 o
-12 16 6 897.99 900.36 82.97 o
-11 16 6 2896.35 3015.31 114.75 o
-10 16 6 24.98 -98.86 63.55 <
-9 16 6 2301.96 2332.10 105.92 o
-8 16 6 291.11 319.54 70.62 o
-7 16 6 13.04 42.37 65.32 <
-6 16 6 9.96 45.90 60.02 <
-5 16 6 389.71 524.33 68.85 o
-4 16 6 1505.31 1583.57 84.74 o
-3 16 6 0.72 49.43 60.02 <
-2 16 6 2658.51 2635.75 125.34 o
-1 16 6 480.57 457.24 75.91 o
0 16 6 274.48 303.65 74.15 o
-14 17 6 2460.49 2326.80 123.58 o
-13 17 6 445.03 437.82 77.68 o
-12 17 6 4.20 -31.78 68.85 <
-11 17 6 20.73 -33.54 68.85 <
-10 17 6 0.39 -100.63 67.09 <
-9 17 6 4354.55 4275.81 158.89 o
-8 17 6 571.54 531.39 79.44 o
-7 17 6 2434.29 2464.50 111.22 o
-6 17 6 535.00 471.36 70.62 o
-5 17 6 4010.25 4097.50 135.94 o
-4 17 6 54.55 151.82 65.32 <
-3 17 6 198.58 273.64 67.09 o
-12 18 6 2170.90 1844.85 143.00 o
-11 18 6 121.06 81.21 72.38 <
-10 18 6 1568.38 1569.44 97.10 o
-9 18 6 35.51 120.05 75.91 <
-8 18 6 75.30 31.78 72.38 <
-7 18 6 1.92 30.01 74.15 <
-6 18 6 85.55 58.26 67.09 <
0 1 7 19.97 33.54 17.65 <
-1 2 7 3962.38 3943.91 47.67 o
0 2 7 153.16 148.29 17.65 o
-2 3 7 17644.70 17429.80 120.05 o
-1 3 7 9644.55 9489.05 74.15 o
0 3 7 12.04 44.14 15.89 <
-3 4 7 109.02 102.39 19.42 o
-2 4 7 2141.28 2178.51 40.60 o
-1 4 7 2.71 -14.12 17.65 <
0 4 7 19.65 40.60 17.65 <
-4 5 7 746.48 766.18 28.25 o
-3 5 7 6799.34 6556.71 67.09 o
-2 5 7 4193.35 4085.14 56.49 o
-1 5 7 197.31 197.73 21.18 o
0 5 7 0.46 -17.65 19.42 <
-5 6 7 4800.66 4914.88 63.55 o
-4 6 7 2032.86 2014.33 40.60 o
-3 6 7 10142.20 10288.80 100.63 o
-2 6 7 522.16 580.82 26.48 o
-1 6 7 1479.64 1509.42 35.31 o
0 6 7 440.02 407.81 28.25 o
-6 7 7 7136.44 7132.23 81.21 o
-5 7 7 2862.88 2981.77 52.96 o
-4 7 7 4657.52 4597.11 63.55 o
-3 7 7 23.84 22.95 22.95 <
-2 7 7 6498.49 6533.76 72.38 o
-1 7 7 3680.16 3823.86 56.49 o
0 7 7 853.41 886.23 35.31 o
-7 8 7 1883.25 1910.17 47.67 o
-6 8 7 1993.31 2067.29 45.90 o
-5 8 7 203.04 201.26 28.25 o
-4 8 7 193.48 206.55 31.78 o
-3 8 7 1870.39 1998.44 44.14 o
-2 8 7 4100.73 4205.19 65.32 o
-1 8 7 358.90 376.03 31.78 o
0 8 7 55.21 30.01 26.48 <
-8 9 7 276.98 259.51 31.78 o
-7 9 7 3150.99 3052.38 58.26 o
-6 9 7 1820.11 1751.28 47.67 o
-5 9 7 311.98 301.88 33.54 o
-4 9 7 730.48 692.04 37.07 o
-3 9 7 909.09 873.88 40.60 o
-2 9 7 180.95 178.31 30.01 o
-1 9 7 8.96 28.25 28.25 <
0 9 7 261.67 227.74 33.54 o
-9 10 7 222.39 277.17 44.14 o
-8 10 7 5148.94 5250.31 86.50 o
-7 10 7 4480.81 4558.27 79.44 o
-6 10 7 24.18 61.79 31.78 <
-5 10 7 505.18 520.79 38.84 o
-4 10 7 3898.05 4007.47 75.91 o
-3 10 7 5605.21 5709.32 88.27 o
-2 10 7 722.98 792.67 45.90 o
-1 10 7 335.20 261.28 44.14 o
0 10 7 1402.30 1433.51 63.55 o
-10 11 7 7184.06 7036.90 118.28 o
-9 11 7 31.08 8.83 40.60 <
-8 11 7 860.65 880.94 60.02 o
-7 11 7 896.16 909.18 60.02 o
-6 11 7 5885.38 5938.82 118.28 o
-5 11 7 801.20 750.30 58.26 o
-4 11 7 2191.75 2217.35 72.38 o
-3 11 7 92.90 121.81 44.14 <
-2 11 7 4147.26 4203.43 95.33 o
-1 11 7 966.20 843.86 61.79 o
0 11 7 790.46 762.66 61.79 o
-11 12 7 1266.78 1290.51 70.62 o
-10 12 7 232.51 261.28 47.67 o
-9 12 7 123.65 153.59 51.20 <
-8 12 7 91.93 54.73 47.67 <
-7 12 7 1005.50 974.50 63.55 o
-6 12 7 1831.08 1730.10 75.91 o
-5 12 7 212.44 222.44 51.20 o
-4 12 7 300.63 353.08 47.67 o
-3 12 7 2184.94 2247.36 75.91 o
-2 12 7 2909.89 2867.02 84.74 o
-1 12 7 65.79 52.96 49.43 <
0 12 7 45.53 10.59 51.20 <
-12 13 7 272.60 255.98 58.26 o
-11 13 7 842.22 891.53 77.68 o
-10 13 7 15.91 61.79 51.20 <
-9 13 7 12.08 -67.09 49.43 <
-8 13 7 94.34 51.20 51.20 <
-7 13 7 160.23 192.43 52.96 o
-6 13 7 124.07 121.81 51.20 <
-5 13 7 0.48 1.77 44.14 <
-4 13 7 6.24 58.26 45.90 <
-3 13 7 69.36 95.33 47.67 <
-2 13 7 13.89 5.30 47.67 <
-1 13 7 36.94 70.62 54.73 <
0 13 7 52.37 -40.60 54.73 <
-13 14 7 18.30 56.49 56.49 <
-12 14 7 3014.76 2960.58 114.75 o
-11 14 7 1100.36 1023.93 81.21 o
-10 14 7 476.25 441.35 70.62 o
-9 14 7 52.94 26.48 63.55 <
-8 14 7 1837.33 1862.50 95.33 o
-7 14 7 2379.47 2402.71 104.16 o
-6 14 7 29.19 28.25 61.79 <
-5 14 7 180.96 174.77 51.20 o
-4 14 7 1598.17 1560.62 70.62 o
-3 14 7 1444.98 1521.78 72.38 o
-2 14 7 39.21 52.96 56.49 <
-1 14 7 53.55 123.58 58.26 <
0 14 7 310.28 365.44 65.32 o
-14 15 7 1211.99 1075.13 88.27 o
-13 15 7 198.70 254.22 72.38 o
-12 15 7 833.73 819.15 81.21 o
-11 15 7 956.54 1029.23 84.74 o
-10 15 7 1556.22 1631.23 95.33 o
-9 15 7 57.27 -21.18 67.09 <
-8 15 7 1282.80 1241.08 88.27 o
-7 15 7 18.24 120.05 68.85 <
-6 15 7 1867.63 1851.91 97.10 o
-5 15 7 0.60 -84.74 56.49 <
-4 15 7 2612.53 2708.13 98.86 o
-3 15 7 257.76 157.12 61.79 <
-2 15 7 558.49 476.66 75.91 o
-1 15 7 141.12 211.85 72.38 <
0 15 7 1352.09 1467.05 93.57 o
-14 16 7 40.96 21.18 70.62 <
-13 16 7 46.99 100.63 68.85 <
-12 16 7 85.66 65.32 70.62 <
-11 16 7 1456.78 1482.94 95.33 o
-10 16 7 1239.91 1327.58 93.57 o
-9 16 7 133.28 125.34 70.62 <
-8 16 7 52.05 104.16 70.62 <
-7 16 7 1948.77 1926.06 102.39 o
-6 16 7 1562.07 1638.29 98.86 o
-5 16 7 15.15 30.01 61.79 <
-4 16 7 47.24 21.18 61.79 <
-3 16 7 788.04 699.10 81.21 o
-2 16 7 1613.95 1546.49 97.10 o
-13 17 7 0.10 74.15 72.38 <
-12 17 7 62.10 114.75 72.38 <
-11 17 7 31.93 -61.79 72.38 <
-10 17 7 26.58 137.70 75.91 <
-9 17 7 5.87 -12.36 72.38 <
-8 17 7 10.94 -17.65 72.38 <
-7 17 7 8.18 5.30 72.38 <
-6 17 7 87.21 44.14 72.38 <
-5 17 7 7.18 68.85 65.32 <
-4 17 7 5.22 -26.48 72.38 <
0 0 8 47725.00 45693.90 965.68 o
0 1 8 206.41 201.26 24.72 o
-1 2 8 266.08 259.51 22.95 o
0 2 8 2359.43 2312.68 45.90 o
-2 3 8 5837.15 5749.92 67.09 o
-1 3 8 6165.46 5986.48 72.38 o
0 3 8 6066.10 5967.07 68.85 o
-3 4 8 267.37 233.03 24.72 o
-2 4 8 4.11 19.42 21.18 <
-1 4 8 121.47 120.05 26.48 o
0 4 8 6165.29 6111.83 72.38 o
-4 5 8 6292.27 6254.83 77.68 o
-3 5 8 1539.44 1576.51 42.37 o
-2 5 8 1398.14 1426.45 44.14 o
-1 5 8 18007.40 17595.80 158.89 o
0 5 8 4485.16 4457.65 72.38 o
-5 6 8 4066.22 4042.77 70.62 o
-4 6 8 6433.32 6390.76 81.21 o
-3 6 8 29.04 24.72 28.25 <
-2 6 8 3617.25 3527.28 65.32 o
-1 6 8 174.27 157.12 33.54 o
0 6 8 777.22 766.18 40.60 o
-6 7 8 5297.16 5278.56 82.97 o
-5 7 8 793.11 797.96 40.60 o
-4 7 8 638.77 654.97 38.84 o
-3 7 8 601.04 570.22 37.07 o
-2 7 8 352.27 312.48 35.31 o
-1 7 8 5649.23 5589.27 91.80 o
0 7 8 754.17 787.37 42.37 o
-7 8 8 138.38 169.48 37.07 o
-6 8 8 683.67 684.98 40.60 o
-5 8 8 2043.56 2023.15 60.02 o
-4 8 8 15200.70 14967.10 160.65 o
-3 8 8 11.79 19.42 33.54 <
-2 8 8 4195.06 4282.87 75.91 o
-1 8 8 7328.26 7457.07 116.52 o
0 8 8 2692.21 2683.41 77.68 o
-8 9 8 275.87 282.46 45.90 o
-7 9 8 3277.44 3281.89 95.33 o
-6 9 8 2072.32 2079.65 68.85 o
-5 9 8 2563.83 2512.17 74.15 o
-4 9 8 339.95 376.03 51.20 o
-3 9 8 19.03 -5.30 44.14 <
-2 9 8 547.92 566.70 49.43 o
-1 9 8 3254.79 3221.86 86.50 o
0 9 8 7594.62 7785.43 125.34 o
-9 10 8 779.52 730.88 54.73 o
-8 10 8 199.45 195.96 51.20 o
-7 10 8 2854.42 2859.95 91.80 o
-6 10 8 281.20 310.71 51.20 o
-5 10 8 2144.24 2143.20 81.21 o
-4 10 8 1952.32 1883.69 75.91 o
-3 10 8 2981.52 3085.93 84.74 o
-2 10 8 892.53 865.05 63.55 o
-1 10 8 184.98 169.48 45.90 o
0 10 8 355.44 323.07 49.43 o
-10 11 8 75.67 47.67 45.90 <
-9 11 8 828.31 718.52 63.55 o
-8 11 8 468.76 398.98 56.49 o
-7 11 8 293.93 234.80 52.96 o
-6 11 8 2234.16 2183.80 82.97 o
-5 11 8 2215.31 2323.27 84.74 o
-4 11 8 709.60 718.52 61.79 o
-3 11 8 1600.18 1514.72 67.09 o
-2 11 8 2793.88 2845.83 93.57 o
-1 11 8 525.50 526.09 60.02 o
0 11 8 1921.12 2069.05 84.74 o
-11 12 8 916.09 833.27 68.85 o
-10 12 8 254.10 287.76 58.26 o
-9 12 8 5050.37 5299.74 118.28 o
-8 12 8 690.81 743.23 65.32 o
-7 12 8 1696.55 1668.31 77.68 o
-6 12 8 73.57 70.62 51.20 <
-5 12 8 196.71 146.53 52.96 <
-4 12 8 544.43 651.43 61.79 o
-3 12 8 332.76 441.35 52.96 o
-2 12 8 2262.13 2347.99 88.27 o
-1 12 8 152.23 107.69 54.73 <
0 12 8 2552.57 2543.95 93.57 o
-12 13 8 471.73 349.55 72.38 o
-11 13 8 251.13 215.38 68.85 o
-10 13 8 103.61 158.89 56.49 <
-9 13 8 2807.18 3004.72 100.63 o
-8 13 8 2775.22 2588.08 95.33 o
-7 13 8 2267.68 2344.46 90.04 o
-6 13 8 209.43 195.96 56.49 o
-5 13 8 8952.38 8800.54 153.59 o
-4 13 8 457.36 503.14 61.79 o
-3 13 8 783.99 630.25 65.32 o
-2 13 8 716.68 748.53 68.85 o
-1 13 8 2698.17 2679.88 97.10 o
0 13 8 914.06 865.05 72.38 o
-13 14 8 187.07 183.60 70.62 <
-12 14 8 2317.40 2196.16 121.81 o
-11 14 8 692.33 586.11 77.68 o
-10 14 8 1287.58 1147.51 86.50 o
-9 14 8 122.04 77.68 68.85 <
-8 14 8 2004.50 2129.08 90.04 o
-7 14 8 2.27 -15.89 56.49 <
-6 14 8 0.14 68.85 58.26 <
-5 14 8 55.65 148.29 58.26 <
-4 14 8 47.46 3.53 56.49 <
-3 14 8 1620.24 1633.00 82.97 o
-2 14 8 0.02 -37.07 58.26 <
-1 14 8 3576.06 3564.35 125.34 o
0 14 8 197.09 144.76 63.55 <
-14 15 8 641.09 612.59 81.21 o
-13 15 8 380.64 462.54 77.68 o
-12 15 8 173.23 194.19 74.15 <
-11 15 8 378.69 312.48 74.15 o
-10 15 8 1460.71 1458.22 95.33 o
-9 15 8 53.29 35.31 68.85 <
-8 15 8 187.82 199.49 75.91 <
-7 15 8 1215.70 1398.20 91.80 o
-6 15 8 234.84 197.73 74.15 <
-5 15 8 911.97 967.44 86.50 o
-4 15 8 1249.41 1285.21 104.16 o
-3 15 8 32.41 42.37 68.85 <
-2 15 8 701.97 692.04 81.21 o
-1 15 8 613.31 704.40 82.97 o
-13 16 8 441.18 420.17 79.44 o
-12 16 8 28.47 -68.85 70.62 <
-11 16 8 7.47 -58.26 70.62 <
-10 16 8 683.40 722.05 84.74 o
-9 16 8 332.55 421.93 79.44 o
-8 16 8 1398.69 1316.99 95.33 o
-7 16 8 1046.77 1062.77 90.04 o
-6 16 8 677.83 639.08 82.97 o
-5 16 8 1247.12 1023.93 102.39 o
-4 16 8 134.45 125.34 86.50 <
-3 16 8 535.94 683.21 81.21 o
-10 17 8 2137.88 1993.14 105.92 o
-9 17 8 1377.92 1482.94 100.63 o
-8 17 8 38.94 97.10 77.68 <
-7 17 8 0.06 -77.68 84.74 <
0 1 9 1.26 7.06 30.01 <
-1 2 9 2987.82 2895.26 60.02 o
0 2 9 348.91 326.60 28.25 o
-2 3 9 10259.30 10062.80 102.39 o
-1 3 9 6570.59 6413.71 84.74 o
0 3 9 20.25 24.72 30.01 <
-3 4 9 27.85 56.49 24.72 <
-2 4 9 1046.89 1006.28 38.84 o
-1 4 9 21.93 81.21 28.25 <
0 4 9 77.51 79.44 30.01 <
-4 5 9 574.58 538.45 35.31 o
-3 5 9 5249.26 5218.53 79.44 o
-2 5 9 1954.44 1858.97 54.73 o
-1 5 9 146.22 130.64 37.07 o
0 5 9 134.18 95.33 33.54 <
-5 6 9 2774.76 2875.84 70.62 o
-4 6 9 1042.39 1062.77 45.90 o
-3 6 9 5363.77 5456.86 82.97 o
-2 6 9 357.47 294.82 40.60 o
-1 6 9 1021.75 1068.07 54.73 o
0 6 9 381.29 365.44 40.60 o
-6 7 9 4730.64 4764.83 95.33 o
-5 7 9 1751.07 1705.38 63.55 o
-4 7 9 3183.00 3213.04 82.97 o
-3 7 9 9.23 19.42 38.84 <
-2 7 9 4343.57 4364.08 102.39 o
-1 7 9 1937.79 1994.91 68.85 o
0 7 9 191.46 245.39 44.14 o
-7 8 9 932.77 979.80 56.49 o
-6 8 9 1039.15 1068.07 63.55 o
-5 8 9 209.61 335.43 49.43 o
-4 8 9 23.21 65.32 45.90 <
-3 8 9 731.16 683.21 52.96 o
-2 8 9 2884.76 2911.15 91.80 o
-1 8 9 201.13 254.22 44.14 o
0 8 9 79.82 70.62 44.14 <
-8 9 9 385.79 462.54 51.20 o
-7 9 9 1575.34 1595.93 75.91 o
-6 9 9 824.29 861.52 61.79 o
-5 9 9 75.67 54.73 49.43 <
-4 9 9 363.48 437.82 54.73 o
-3 9 9 541.28 552.57 65.32 o
-2 9 9 287.52 372.50 54.73 o
-1 9 9 12.67 -100.63 42.37 <
0 9 9 94.00 121.81 47.67 <
-9 10 9 290.40 333.66 58.26 o
-8 10 9 3474.76 3710.88 105.92 o
-7 10 9 3320.90 3491.97 102.39 o
-6 10 9 110.61 162.42 51.20 o
-5 10 9 334.65 367.20 56.49 o
-4 10 9 2607.89 2584.55 90.04 o
-3 10 9 2766.70 2704.60 102.39 o
-2 10 9 449.84 439.59 65.32 o
-1 10 9 121.15 132.40 47.67 <
0 10 9 640.13 741.47 58.26 o
-10 11 9 5055.40 4770.12 128.87 o
-9 11 9 3.47 28.25 54.73 <
-8 11 9 544.72 547.28 61.79 o
-7 11 9 534.78 635.54 63.55 o
-6 11 9 3349.48 3336.61 100.63 o
-5 11 9 649.85 515.50 61.79 o
-4 11 9 1421.00 1486.47 75.91 o
-3 11 9 95.01 79.44 60.02 <
-2 11 9 3400.53 3491.97 104.16 o
-1 11 9 789.35 789.14 67.09 o
0 11 9 627.65 605.53 67.09 o
-11 12 9 568.19 480.19 75.91 o
-10 12 9 398.68 284.23 61.79 o
-9 12 9 64.11 72.38 56.49 <
-8 12 9 6.41 -24.72 54.73 <
-7 12 9 999.54 1036.29 72.38 o
-6 12 9 1205.09 1025.70 72.38 o
-5 12 9 16.03 72.38 54.73 <
-4 12 9 126.08 75.91 63.55 <
-3 12 9 1378.34 1308.16 86.50 o
-2 12 9 1492.33 1278.15 77.68 o
-1 12 9 107.66 164.18 60.02 <
0 12 9 23.35 173.01 61.79 <
-12 13 9 148.62 135.94 70.62 <
-11 13 9 632.58 642.61 79.44 o
-10 13 9 39.14 81.21 60.02 <
-9 13 9 32.63 74.15 58.26 <
-8 13 9 59.57 44.14 60.02 <
-7 13 9 159.51 100.63 58.26 <
-6 13 9 23.37 -52.96 56.49 <
-5 13 9 0.44 -51.20 56.49 <
-4 13 9 25.53 -61.79 63.55 <
-3 13 9 14.18 102.39 67.09 <
-2 13 9 0.61 -47.67 58.26 <
-1 13 9 0.67 -67.09 60.02 <
0 13 9 10.11 -40.60 68.85 <
-13 14 9 1.76 -35.31 70.62 <
-12 14 9 2728.13 2692.24 134.17 o
-11 14 9 600.49 677.91 82.97 o
-10 14 9 377.07 428.99 67.09 o
-9 14 9 134.52 128.87 61.79 <
-8 14 9 1083.40 1080.43 77.68 o
-7 14 9 1567.84 1648.89 95.33 o
-6 14 9 0.36 -63.55 58.26 <
-5 14 9 262.50 314.24 65.32 o
-4 14 9 1003.67 861.52 98.86 o
-3 14 9 1199.70 1062.77 88.27 o
-2 14 9 0.31 31.78 61.79 <
-1 14 9 38.08 100.63 61.79 <
-12 15 9 609.21 640.84 82.97 o
-11 15 9 521.46 425.46 79.44 o
-10 15 9 1458.42 1542.96 114.75 o
-9 15 9 54.16 7.06 72.38 <
-8 15 9 1182.51 1140.45 91.80 o
-7 15 9 0.72 -1.77 70.62 <
-6 15 9 1223.58 997.45 90.04 o
-5 15 9 20.58 -7.06 82.97 <
-4 15 9 1455.97 1509.42 93.57 o
-3 15 9 166.85 213.61 74.15 <
-9 16 9 34.58 40.60 74.15 <
-8 16 9 53.58 26.48 74.15 <
-7 16 9 1144.05 1175.76 93.57 o
0 0 10 10058.20 10022.20 317.77 o
0 1 10 2499.58 2406.25 68.85 o
-1 2 10 5062.21 4950.19 90.04 o
0 2 10 20.08 61.79 38.84 <
-2 3 10 647.75 651.43 45.90 o
-1 3 10 98.51 97.10 37.07 <
0 3 10 123.20 88.27 38.84 <
-3 4 10 259.12 263.05 40.60 o
-2 4 10 5111.30 5195.58 97.10 o
-1 4 10 2920.12 2893.50 77.68 o
0 4 10 8360.46 8380.37 123.58 o
-4 5 10 39.80 52.96 37.07 <
-3 5 10 4.07 -14.12 38.84 <
-2 5 10 1.93 0.00 42.37 <
-1 5 10 686.47 662.03 54.73 o
0 5 10 6314.36 6205.40 120.05 o
-5 6 10 52.05 19.42 42.37 <
-4 6 10 282.15 298.35 51.20 o
-3 6 10 4830.76 4724.22 105.92 o
-2 6 10 129.77 148.29 47.67 o
-1 6 10 572.35 593.18 56.49 o
0 6 10 2482.15 2261.48 82.97 o
-6 7 10 847.29 921.54 63.55 o
-5 7 10 1690.30 1724.80 74.15 o
-4 7 10 88.36 102.39 47.67 <
-3 7 10 157.12 90.04 47.67 <
-2 7 10 4239.25 4203.43 105.92 o
-1 7 10 652.24 660.26 60.02 o
0 7 10 31.04 -54.73 47.67 <
-7 8 10 2005.09 2007.26 82.97 o
-6 8 10 10.47 -56.49 49.43 <
-5 8 10 3878.51 3979.22 105.92 o
-4 8 10 929.47 949.79 72.38 o
-3 8 10 731.99 727.35 61.79 o
-2 8 10 424.62 402.51 56.49 o
-1 8 10 4.66 -26.48 49.43 <
0 8 10 5863.47 6175.38 116.52 o
-8 9 10 528.38 504.91 61.79 o
-7 9 10 383.22 409.57 58.26 o
-6 9 10 419.58 428.99 58.26 o
-5 9 10 6034.61 6152.43 127.11 o
-4 9 10 1707.75 1735.39 88.27 o
-3 9 10 3446.86 3675.57 118.28 o
-2 9 10 47.77 10.59 51.20 <
-1 9 10 4849.45 4833.68 118.28 o
0 9 10 296.88 234.80 52.96 o
-9 10 10 1.47 30.01 56.49 <
-8 10 10 2135.28 2125.55 88.27 o
-7 10 10 399.92 328.36 60.02 o
-6 10 10 396.07 372.50 60.02 o
-5 10 10 248.89 331.90 58.26 o
-4 10 10 155.34 81.21 61.79 <
-3 10 10 81.99 109.46 61.79 <
-2 10 10 637.84 489.02 72.38 o
-1 10 10 957.12 859.75 79.44 o
0 10 10 51.48 65.32 58.26 <
-10 11 10 3337.09 3433.71 105.92 o
-9 11 10 0.01 -22.95 56.49 <
-8 11 10 86.89 102.39 58.26 <
-7 11 10 1670.51 1663.01 82.97 o
-6 11 10 257.05 314.24 61.79 o
-5 11 10 314.47 337.19 68.85 o
-4 11 10 858.22 820.91 79.44 o
-3 11 10 0.46 51.20 63.55 <
-2 11 10 412.60 259.51 70.62 o
-1 11 10 858.72 956.85 84.74 o
0 11 10 27.97 8.83 67.09 <
-11 12 10 15.73 -56.49 68.85 <
-10 12 10 69.43 1.77 60.02 <
-9 12 10 414.41 430.76 67.09 o
-8 12 10 2306.37 2238.53 93.57 o
-7 12 10 145.12 79.44 60.02 <
-6 12 10 1534.21 1294.04 79.44 o
-5 12 10 1169.34 1239.31 90.04 o
-4 12 10 1653.72 1700.08 97.10 o
-3 12 10 1213.50 1117.50 88.27 o
-2 12 10 449.90 511.97 77.68 o
-1 12 10 279.15 155.36 70.62 <
0 12 10 6.48 -35.31 70.62 <
-12 13 10 0.48 86.50 72.38 <
-11 13 10 1007.34 1094.55 105.92 o
-10 13 10 907.10 861.52 75.91 o
-9 13 10 4404.77 4365.84 151.82 o
-8 13 10 32.75 -33.54 60.02 <
-7 13 10 155.12 143.00 65.32 <
-6 13 10 1693.45 1532.37 84.74 o
-5 13 10 959.34 946.26 84.74 o
-4 13 10 1535.51 1505.89 95.33 o
-3 13 10 0.81 -51.20 68.85 <
-2 13 10 495.48 471.36 77.68 o
-1 13 10 3777.44 3191.85 165.95 o
0 13 10 1697.37 1733.63 114.75 o
-11 14 10 14.78 -10.59 72.38 <
-10 14 10 221.21 210.08 65.32 o
-9 14 10 65.29 35.31 65.32 <
-8 14 10 351.17 245.39 68.85 o
-7 14 10 1680.07 1670.07 88.27 o
-6 14 10 345.91 360.14 75.91 o
-5 14 10 592.14 487.25 77.68 o
-4 14 10 811.81 773.25 84.74 o
-3 14 10 151.86 91.80 72.38 <
-8 15 10 23.08 -3.53 75.91 <
-7 15 10 111.65 52.96 86.50 <
0 1 11 0.16 -61.79 37.07 <
-1 2 11 945.53 909.18 56.49 o
0 2 11 0.61 -7.06 47.67 <
-2 3 11 5644.88 5478.05 143.00 o
-1 3 11 3122.31 3281.89 104.16 o
0 3 11 31.07 47.67 49.43 <
-3 4 11 203.60 150.06 54.73 <
-2 4 11 763.73 898.59 68.85 o
-1 4 11 1.67 -30.01 44.14 <
0 4 11 19.38 14.12 51.20 <
-4 5 11 209.27 165.95 65.32 <
-3 5 11 2463.21 2611.03 98.86 o
-2 5 11 2138.49 2092.00 79.44 o
-1 5 11 3.23 -95.33 44.14 <
0 5 11 30.27 -33.54 47.67 <
-5 6 11 1884.88 1876.62 90.04 o
-4 6 11 825.33 880.94 84.74 o
-3 6 11 4245.06 4371.14 109.46 o
-2 6 11 113.82 60.02 49.43 <
-1 6 11 721.38 773.25 61.79 o
0 6 11 387.18 268.34 54.73 o
-6 7 11 2902.18 2962.35 109.46 o
-5 7 11 922.71 923.31 75.91 o
-4 7 11 1010.23 992.16 75.91 o
-3 7 11 2.11 -7.06 49.43 <
-2 7 11 2611.17 2547.48 90.04 o
-1 7 11 1207.33 1225.19 72.38 o
0 7 11 564.10 704.40 65.32 o
-7 8 11 584.39 644.37 75.91 o
-6 8 11 329.86 347.79 60.02 o
-5 8 11 62.20 -81.21 56.49 <
-4 8 11 172.56 141.23 63.55 <
-3 8 11 550.96 571.99 68.85 o
-2 8 11 1562.89 1747.75 82.97 o
-1 8 11 298.64 296.59 58.26 o
0 8 11 8.97 14.12 63.55 <
-8 9 11 148.64 148.29 68.85 <
-7 9 11 1361.80 1387.61 79.44 o
-6 9 11 779.00 797.96 70.62 o
-5 9 11 133.33 125.34 65.32 <
-4 9 11 482.30 471.36 72.38 o
-3 9 11 725.24 686.74 77.68 o
-2 9 11 22.83 -24.72 61.79 <
-1 9 11 3.11 12.36 56.49 <
0 9 11 39.19 97.10 67.09 <
-9 10 11 34.16 52.96 68.85 <
-8 10 11 1721.83 1719.50 86.50 o
-7 10 11 1318.36 1315.23 79.44 o
-6 10 11 21.46 14.12 65.32 <
-5 10 11 243.91 233.03 68.85 o
-4 10 11 1587.22 1520.01 93.57 o
-3 10 11 2383.24 2132.61 102.39 o
-2 10 11 246.41 238.33 72.38 o
-1 10 11 39.81 -35.31 67.09 <
0 10 11 687.27 690.27 97.10 o
-10 11 11 2603.52 2692.24 134.17 o
-9 11 11 6.96 -10.59 61.79 <
-8 11 11 273.75 312.48 67.09 o
-7 11 11 263.47 333.66 67.09 o
-6 11 11 2340.94 2415.07 109.46 o
-5 11 11 610.31 644.37 79.44 o
-4 11 11 747.82 752.06 82.97 o
-3 11 11 13.29 42.37 68.85 <
-2 11 11 1913.70 2157.32 121.81 o
-1 11 11 382.79 340.72 91.80 o
0 11 11 350.30 413.11 91.80 o
-11 12 11 631.58 640.84 98.86 o
-10 12 11 144.94 65.32 72.38 <
-9 12 11 41.62 45.90 63.55 <
-8 12 11 28.55 5.30 61.79 <
-7 12 11 234.61 206.55 67.09 o
-6 12 11 799.25 859.75 84.74 o
-5 12 11 87.38 24.72 70.62 <
-4 12 11 238.60 211.85 74.15 <
-3 12 11 1103.60 1057.48 91.80 o
-2 12 11 1619.30 1490.00 97.10 o
-1 12 11 25.79 123.58 86.50 <
-10 13 11 10.77 -70.62 72.38 <
-9 13 11 5.09 -37.07 63.55 <
-8 13 11 20.83 5.30 65.32 <
-7 13 11 91.39 17.65 72.38 <
-6 13 11 62.16 45.90 72.38 <
-5 13 11 6.91 58.26 72.38 <
-4 13 11 23.94 14.12 72.38 <
-3 13 11 23.09 5.30 72.38 <
0 0 12 15157.90 14589.30 425.46 o
0 1 12 202.40 100.63 52.96 <
-1 2 12 29.32 128.87 61.79 <
0 2 12 841.95 882.70 68.85 o
-2 3 12 1926.25 2090.24 105.92 o
-1 3 12 1075.83 1105.14 74.15 o
0 3 12 1571.51 1673.60 84.74 o
-3 4 12 112.07 210.08 67.09 o
-2 4 12 44.99 7.06 61.79 <
-1 4 12 403.00 416.64 72.38 o
0 4 12 2438.30 2190.87 137.70 o
-4 5 12 1352.10 1347.00 97.10 o
-3 5 12 591.65 667.32 81.21 o
-2 5 12 399.14 398.98 75.91 o
-1 5 12 4403.29 4590.05 146.53 o
0 5 12 1369.30 1331.11 97.10 o
-5 6 12 783.08 843.86 90.04 o
-4 6 12 1258.50 1205.77 95.33 o
-3 6 12 95.58 70.62 70.62 <
-2 6 12 1083.86 1038.06 70.62 o
-1 6 12 46.73 90.04 54.73 <
0 6 12 10.31 -132.40 67.09 <
-6 7 12 1779.60 1753.05 111.22 o
-5 7 12 183.10 259.51 79.44 o
-4 7 12 91.36 65.32 75.91 <
-3 7 12 152.66 185.37 63.55 <
-2 7 12 104.08 109.46 58.26 <
-1 7 12 1420.51 1347.00 79.44 o
0 7 12 261.45 245.39 70.62 o
-7 8 12 1.82 -17.65 67.09 <
-6 8 12 274.99 278.93 81.21 o
-5 8 12 870.65 857.99 95.33 o
-4 8 12 4068.07 3873.30 125.34 o
-3 8 12 2.72 54.73 65.32 <
-2 8 12 1007.45 948.02 82.97 o
-1 8 12 1907.78 2028.45 102.39 o
0 8 12 1484.50 1304.63 93.57 o
-8 9 12 0.36 14.12 70.62 <
-7 9 12 1198.35 1182.82 105.92 o
-6 9 12 411.48 374.27 88.27 o
-5 9 12 1377.37 1341.71 91.80 o
-4 9 12 130.99 107.69 70.62 <
-3 9 12 59.51 118.28 70.62 <
-2 9 12 170.10 190.66 72.38 <
-1 9 12 1314.70 1142.22 105.92 o
0 9 12 2454.68 2806.99 135.94 o
-9 10 12 224.06 162.42 74.15 <
-8 10 12 2.59 -42.37 70.62 <
-7 10 12 1105.55 1053.95 104.16 o
-6 10 12 11.65 63.55 70.62 <
-5 10 12 594.91 552.57 81.21 o
-4 10 12 795.29 785.60 84.74 o
-3 10 12 846.96 898.59 86.50 o
-2 10 12 160.93 102.39 72.38 <
-1 10 12 43.77 97.10 86.50 <
0 10 12 177.16 277.17 90.04 o
-9 11 12 241.94 188.90 77.68 <
-8 11 12 110.92 40.60 86.50 <
-7 11 12 3.26 -72.38 68.85 <
-6 11 12 728.72 720.28 84.74 o
-5 11 12 791.00 843.86 84.74 o
-4 11 12 126.30 130.64 74.15 <
-3 11 12 272.19 266.58 77.68 o
-2 11 12 903.72 847.39 102.39 o
-7 12 12 657.56 561.40 82.97 o
-6 12 12 0.00 -40.60 72.38 <
-5 12 12 129.96 42.37 84.74 <
0 1 13 1.02 63.55 79.44 <
-1 2 13 978.14 1064.54 88.27 o
0 2 13 107.98 102.39 68.85 <
-2 3 13 2899.16 2921.74 125.34 o
-1 3 13 2022.58 1993.14 107.69 o
0 3 13 6.00 -77.68 81.21 <
-3 4 13 5.96 60.02 91.80 <
-2 4 13 315.95 264.81 75.91 o
-1 4 13 5.96 12.36 68.85 <
0 4 13 15.60 60.02 91.80 <
-4 5 13 152.90 157.12 93.57 <
-3 5 13 1528.34 1338.18 125.34 o
-2 5 13 584.62 501.38 84.74 o
-1 5 13 58.35 173.01 95.33 <
0 5 13 40.73 160.65 98.86 <
-5 6 13 861.61 849.16 118.28 o
-4 6 13 358.07 473.13 105.92 o
-3 6 13 1853.67 1896.04 139.47 o
-2 6 13 70.20 61.79 95.33 <
-1 6 13 426.61 398.98 105.92 o
0 6 13 67.03 26.48 77.68 <
-6 7 13 1781.80 1548.26 111.22 o
-5 7 13 673.76 670.85 93.57 o
-4 7 13 1063.95 1223.42 104.16 o
-3 7 13 0.09 -1.77 95.33 <
-2 7 13 1550.07 1426.45 128.87 o
-1 7 13 681.12 792.67 116.52 o
0 7 13 83.53 120.05 82.97 <
-7 8 13 400.60 264.81 86.50 o
-6 8 13 401.83 540.21 95.33 o
-5 8 13 75.77 220.68 84.74 <
-4 8 13 10.52 -45.90 79.44 <
-3 8 13 338.21 372.50 88.27 o
-2 8 13 936.81 872.11 98.86 o
-1 8 13 42.24 45.90 100.63 <
0 8 13 32.11 84.74 104.16 <
-8 9 13 162.21 67.09 86.50 <
-7 9 13 757.54 769.72 102.39 o
-6 9 13 408.45 229.50 90.04 <
-5 9 13 27.45 49.43 84.74 <
-4 9 13 62.93 95.33 86.50 <
-3 9 13 211.07 194.19 74.15 <
-2 9 13 155.30 187.13 88.27 <
-1 9 13 0.01 -1.77 84.74 <
-5 10 13 115.39 171.24 88.27 <
-1 2 14 920.29 884.47 153.59 o
0 2 14 17.86 -26.48 86.50 <
-2 3 14 240.48 146.53 91.80 <
-1 3 14 212.38 123.58 93.57 <
0 3 14 3.81 -82.97 91.80 <
-3 4 14 124.91 118.28 95.33 <
-2 4 14 1273.73 1308.16 123.58 o
-1 4 14 490.11 656.73 112.99 o
0 4 14 2821.75 3209.50 240.10 o
-4 5 14 0.21 -74.15 97.10 <
-3 5 14 5.90 19.42 98.86 <
-2 5 14 0.61 -1.77 134.17 <
-1 5 14 583.76 557.87 162.42 o
0 5 14 1995.41 2196.16 148.29 o
-5 6 14 156.76 5.30 104.16 <
-4 6 14 343.36 344.25 111.22 o
-3 6 14 1029.58 1285.21 130.64 o
-2 6 14 89.19 157.12 153.59 <
-1 6 14 70.76 114.75 151.82 <
0 6 14 482.83 397.22 111.22 o
-4 7 14 54.87 14.12 102.39 <
-3 7 14 22.05 201.26 105.92 <
#BEGIN Loops that were not found in dictionaries:
loop_
_atom_site_anharm_gc_c_label
_atom_site_anharm_gc_c_111
_atom_site_anharm_gc_c_112
_atom_site_anharm_gc_c_113
_atom_site_anharm_gc_c_122
_atom_site_anharm_gc_c_123
_atom_site_anharm_gc_c_133
_atom_site_anharm_gc_c_222
_atom_site_anharm_gc_c_223
_atom_site_anharm_gc_c_233
_atom_site_anharm_gc_c_333
La1 -0.00014(3) -0.00018(4) 0.00034(4) -0.00004(4) 0.00017(2) 0.0 0.00014(3)
0.00034(4) 0.0 0.0002(2)
La2 -0.00039(6) -0.00039(4) 0.0 -0.00050(4) 0.0 -0.00049(4) -0.00066(6) 0.0
-0.00061(4) 0.0
loop_
_atom_site_anharm_gc_d_label
_atom_site_anharm_gc_d_1111
_atom_site_anharm_gc_d_1112
_atom_site_anharm_gc_d_1113
_atom_site_anharm_gc_d_1122
_atom_site_anharm_gc_d_1123
_atom_site_anharm_gc_d_1133
_atom_site_anharm_gc_d_1222
_atom_site_anharm_gc_d_1223
_atom_site_anharm_gc_d_1233
_atom_site_anharm_gc_d_1333
_atom_site_anharm_gc_d_2222
_atom_site_anharm_gc_d_2223
_atom_site_anharm_gc_d_2233
_atom_site_anharm_gc_d_2333
_atom_site_anharm_gc_d_3333
La1 0.00023(4) 0.00012(2) -0.00003(2) 0.00012(2) -0.00000(2) 0.00006(3)
0.00012(2) -0.00002(2) 0.00003(2) 0.0 0.00023(4) -0.00003(2) 0.00006(3) 0.0
0.0015(2)
La2 0.00022(4) 0.00013(3) 0.0 0.00011(3) 0.0 0.00006(2) 0.00011(3) 0.0
0.00006(2) 0.0 0.00023(4) 0.0 0.00008(2) 0.0 0.00035(8)
#END Loops that were not found in dictionaries
