#------------------------------------------------------------------------------
#$Date: 2016-02-14 06:40:26 +0200 (Sun, 14 Feb 2016) $
#$Revision: 176432 $
#$URL: svn://www.crystallography.net/cod/cif/4/00/17/4001767.cif $
#------------------------------------------------------------------------------
#
# This file is available in the Crystallography Open Database (COD),
# http://www.crystallography.net/
#
# All data on this site have been placed in the public domain by the
# contributors.
#
data_4001767
loop_
_publ_author_name
'Allix, Mathieu'
'Chenu, S\'ebastien'
'V\'eron, Emmanuel'
'Poumeyrol, Thomas'
'Kouadri-Boudjelthia, El Amin'
'Alahrach\'e, Salaheddine'
'Porcher, Florence'
'Massiot, Dominique'
'Fayon, Franck'
_publ_section_title
;
 Considerable Improvement of Long-Persistent Luminescence in Germanium and
 Tin Substituted ZnGa2O4
;
_journal_issue                   9
_journal_name_full               'Chemistry of Materials'
_journal_page_first              1600
_journal_paper_doi               10.1021/cm304101n
_journal_volume                  25
_journal_year                    2013
_chemical_formula_sum            'Ga2 O4 Zn'
_chemical_formula_weight         268.8
_chemical_name_systematic        ' ?'
_space_group_IT_number           227
_symmetry_cell_setting           cubic
_symmetry_Int_Tables_number      227
_symmetry_space_group_name_Hall  '-F 4vw 2vw 3'
_symmetry_space_group_name_H-M   'F d -3 m :2'
_cell_angle_alpha                90
_cell_angle_beta                 90
_cell_angle_gamma                90
_cell_formula_units_Z            8
_cell_length_a                   8.33406(4)
_cell_length_b                   8.33406(4)
_cell_length_c                   8.33406(4)
_cell_measurement_temperature    293
_cell_volume                     578.855(5)
_diffrn_ambient_temperature      293
_diffrn_radiation_probe          neutron
_diffrn_radiation_wavelength     1.2252
_exptl_absorpt_coefficient_mu    0.006
_exptl_crystal_density_diffrn    6.1671
_exptl_crystal_F_000             992
_pd_instr_location               ' ?'
_pd_meas_2theta_range_inc        0.05
_pd_meas_2theta_range_max        121.050
_pd_meas_2theta_range_min        2.500
_pd_meas_number_of_points        2372
_pd_proc_2theta_range_inc        0.05
_pd_proc_2theta_range_max        121.05
_pd_proc_2theta_range_min        7.05
_pd_proc_ls_background_function  '9 Legendre polynoms'
_pd_proc_ls_pref_orient_corr     none
_pd_proc_ls_profile_function     Pseudo-Voigt
_pd_proc_ls_prof_R_factor        0.0239
_pd_proc_ls_prof_wR_expected     0.0137
_pd_proc_ls_prof_wR_factor       0.0305
_refine_ls_goodness_of_fit_all   2.23
_refine_ls_number_constraints    0
_refine_ls_number_parameters     23
_refine_ls_number_restraints     0
_refine_ls_R_factor_all          0.0094
_refine_ls_R_factor_gt           0.0094
_refine_ls_shift/su_max          0.0270
_refine_ls_shift/su_mean         0.0038
_refine_ls_weighting_scheme      sigma
_refine_ls_wR_factor_all         0.0172
_refine_ls_wR_factor_gt          0.0172
_cod_data_source_file            cm304101n_si_001.cif
_cod_data_source_block           I
_cod_original_sg_symbol_Hall     '-F 4abvw;2abvw;3'
_cod_original_sg_symbol_H-M      'F d -3 m'
_cod_original_formula_sum        'Ga2 O4 Zn1'
_cod_database_code               4001767
loop_
_symmetry_equiv_pos_site_id
_symmetry_equiv_pos_as_xyz
1 x,y,z
2 -x+3/4,-y+1/4,z+1/2
3 -x+1/4,y+1/2,-z+3/4
4 x+1/2,-y+3/4,-z+1/4
5 z,x,y
6 z+1/2,-x+3/4,-y+1/4
7 -z+3/4,-x+1/4,y+1/2
8 -z+1/4,x+1/2,-y+3/4
9 y,z,x
10 -y+1/4,z+1/2,-x+3/4
11 y+1/2,-z+3/4,-x+1/4
12 -y+3/4,-z+1/4,x+1/2
13 y+3/4,x+1/4,-z+1/2
14 -y,-x,-z
15 y+1/4,-x+1/2,z+3/4
16 -y+1/2,x+3/4,z+1/4
17 x+3/4,z+1/4,-y+1/2
18 -x+1/2,z+3/4,y+1/4
19 -x,-z,-y
20 x+1/4,-z+1/2,y+3/4
21 z+3/4,y+1/4,-x+1/2
22 z+1/4,-y+1/2,x+3/4
23 -z+1/2,y+3/4,x+1/4
24 -z,-y,-x
25 -x,-y,-z
26 x+1/4,y+3/4,-z+1/2
27 x+3/4,-y+1/2,z+1/4
28 -x+1/2,y+1/4,z+3/4
29 -z,-x,-y
30 -z+1/2,x+1/4,y+3/4
31 z+1/4,x+3/4,-y+1/2
32 z+3/4,-x+1/2,y+1/4
33 -y,-z,-x
34 y+3/4,-z+1/2,x+1/4
35 -y+1/2,z+1/4,x+3/4
36 y+1/4,z+3/4,-x+1/2
37 -y+1/4,-x+3/4,z+1/2
38 y,x,z
39 -y+3/4,x+1/2,-z+1/4
40 y+1/2,-x+1/4,-z+3/4
41 -x+1/4,-z+3/4,y+1/2
42 x+1/2,-z+1/4,-y+3/4
43 x,z,y
44 -x+3/4,z+1/2,-y+1/4
45 -z+1/4,-y+3/4,x+1/2
46 -z+3/4,y+1/2,-x+1/4
47 z+1/2,-y+1/4,-x+3/4
48 z,y,x
49 x,y+1/2,z+1/2
50 -x+3/4,-y+3/4,z
51 -x+1/4,y,-z+1/4
52 x+1/2,-y+1/4,-z+3/4
53 z,x+1/2,y+1/2
54 z+1/2,-x+1/4,-y+3/4
55 -z+3/4,-x+3/4,y
56 -z+1/4,x,-y+1/4
57 y,z+1/2,x+1/2
58 -y+1/4,z,-x+1/4
59 y+1/2,-z+1/4,-x+3/4
60 -y+3/4,-z+3/4,x
61 y+3/4,x+3/4,-z
62 -y,-x+1/2,-z+1/2
63 y+1/4,-x,z+1/4
64 -y+1/2,x+1/4,z+3/4
65 x+3/4,z+3/4,-y
66 -x+1/2,z+1/4,y+3/4
67 -x,-z+1/2,-y+1/2
68 x+1/4,-z,y+1/4
69 z+3/4,y+3/4,-x
70 z+1/4,-y,x+1/4
71 -z+1/2,y+1/4,x+3/4
72 -z,-y+1/2,-x+1/2
73 -x,-y+1/2,-z+1/2
74 x+1/4,y+1/4,-z
75 x+3/4,-y,z+3/4
76 -x+1/2,y+3/4,z+1/4
77 -z,-x+1/2,-y+1/2
78 -z+1/2,x+3/4,y+1/4
79 z+1/4,x+1/4,-y
80 z+3/4,-x,y+3/4
81 -y,-z+1/2,-x+1/2
82 y+3/4,-z,x+3/4
83 -y+1/2,z+3/4,x+1/4
84 y+1/4,z+1/4,-x
85 -y+1/4,-x+1/4,z
86 y,x+1/2,z+1/2
87 -y+3/4,x,-z+3/4
88 y+1/2,-x+3/4,-z+1/4
89 -x+1/4,-z+1/4,y
90 x+1/2,-z+3/4,-y+1/4
91 x,z+1/2,y+1/2
92 -x+3/4,z,-y+3/4
93 -z+1/4,-y+1/4,x
94 -z+3/4,y,-x+3/4
95 z+1/2,-y+3/4,-x+1/4
96 z,y+1/2,x+1/2
97 x+1/2,y,z+1/2
98 -x+1/4,-y+1/4,z
99 -x+3/4,y+1/2,-z+1/4
100 x,-y+3/4,-z+3/4
101 z+1/2,x,y+1/2
102 z,-x+3/4,-y+3/4
103 -z+1/4,-x+1/4,y
104 -z+3/4,x+1/2,-y+1/4
105 y+1/2,z,x+1/2
106 -y+3/4,z+1/2,-x+1/4
107 y,-z+3/4,-x+3/4
108 -y+1/4,-z+1/4,x
109 y+1/4,x+1/4,-z
110 -y+1/2,-x,-z+1/2
111 y+3/4,-x+1/2,z+1/4
112 -y,x+3/4,z+3/4
113 x+1/4,z+1/4,-y
114 -x,z+3/4,y+3/4
115 -x+1/2,-z,-y+1/2
116 x+3/4,-z+1/2,y+1/4
117 z+1/4,y+1/4,-x
118 z+3/4,-y+1/2,x+1/4
119 -z,y+3/4,x+3/4
120 -z+1/2,-y,-x+1/2
121 -x+1/2,-y,-z+1/2
122 x+3/4,y+3/4,-z
123 x+1/4,-y+1/2,z+3/4
124 -x,y+1/4,z+1/4
125 -z+1/2,-x,-y+1/2
126 -z,x+1/4,y+1/4
127 z+3/4,x+3/4,-y
128 z+1/4,-x+1/2,y+3/4
129 -y+1/2,-z,-x+1/2
130 y+1/4,-z+1/2,x+3/4
131 -y,z+1/4,x+1/4
132 y+3/4,z+3/4,-x
133 -y+3/4,-x+3/4,z
134 y+1/2,x,z+1/2
135 -y+1/4,x+1/2,-z+3/4
136 y,-x+1/4,-z+1/4
137 -x+3/4,-z+3/4,y
138 x,-z+1/4,-y+1/4
139 x+1/2,z,y+1/2
140 -x+1/4,z+1/2,-y+3/4
141 -z+3/4,-y+3/4,x
142 -z+1/4,y+1/2,-x+3/4
143 z,-y+1/4,-x+1/4
144 z+1/2,y,x+1/2
145 x+1/2,y+1/2,z
146 -x+1/4,-y+3/4,z+1/2
147 -x+3/4,y,-z+3/4
148 x,-y+1/4,-z+1/4
149 z+1/2,x+1/2,y
150 z,-x+1/4,-y+1/4
151 -z+1/4,-x+3/4,y+1/2
152 -z+3/4,x,-y+3/4
153 y+1/2,z+1/2,x
154 -y+3/4,z,-x+3/4
155 y,-z+1/4,-x+1/4
156 -y+1/4,-z+3/4,x+1/2
157 y+1/4,x+3/4,-z+1/2
158 -y+1/2,-x+1/2,-z
159 y+3/4,-x,z+3/4
160 -y,x+1/4,z+1/4
161 x+1/4,z+3/4,-y+1/2
162 -x,z+1/4,y+1/4
163 -x+1/2,-z+1/2,-y
164 x+3/4,-z,y+3/4
165 z+1/4,y+3/4,-x+1/2
166 z+3/4,-y,x+3/4
167 -z,y+1/4,x+1/4
168 -z+1/2,-y+1/2,-x
169 -x+1/2,-y+1/2,-z
170 x+3/4,y+1/4,-z+1/2
171 x+1/4,-y,z+1/4
172 -x,y+3/4,z+3/4
173 -z+1/2,-x+1/2,-y
174 -z,x+3/4,y+3/4
175 z+3/4,x+1/4,-y+1/2
176 z+1/4,-x,y+1/4
177 -y+1/2,-z+1/2,-x
178 y+1/4,-z,x+1/4
179 -y,z+3/4,x+3/4
180 y+3/4,z+1/4,-x+1/2
181 -y+3/4,-x+1/4,z+1/2
182 y+1/2,x+1/2,z
183 -y+1/4,x,-z+1/4
184 y,-x+3/4,-z+3/4
185 -x+3/4,-z+1/4,y+1/2
186 x,-z+3/4,-y+3/4
187 x+1/2,z+1/2,y
188 -x+1/4,z,-y+1/4
189 -z+3/4,-y+1/4,x+1/2
190 -z+1/4,y,-x+1/4
191 z,-y+3/4,-x+3/4
192 z+1/2,y+1/2,x
loop_
_atom_site_label
_atom_site_type_symbol
_atom_site_fract_x
_atom_site_fract_y
_atom_site_fract_z
_atom_site_adp_type
_atom_site_U_iso_or_equiv
_atom_site_symmetry_multiplicity
_atom_site_occupancy
_atom_site_calc_flag
Zn1 Zn 0.125 0.125 0.125 Uani 0.00426(7) 8 0.97 d
Ga1 Ga 0.125 0.125 0.125 Uani 0.00426(7) 8 0.03 d
Zn2 Zn 0.5 0.5 0.5 Uani 0.00332(6) 16 0.015 d
Ga2 Ga 0.5 0.5 0.5 Uani 0.00332(6) 16 0.985 d
O O 0.26163(2) 0.26163(2) 0.26163(2) Uani 0.00415(5) 32 1 d
loop_
_atom_site_aniso_label
_atom_site_aniso_type_symbol
_atom_site_aniso_U_11
_atom_site_aniso_U_22
_atom_site_aniso_U_33
_atom_site_aniso_U_12
_atom_site_aniso_U_13
_atom_site_aniso_U_23
Zn1 Zn 0.00426(12) 0.00426(12) 0.00426(12) 0 0 0
Ga1 Ga 0.00426(12) 0.00426(12) 0.00426(12) 0 0 0
Zn2 Zn 0.00332(10) 0.00332(10) 0.00332(10) -0.00051(8) -0.00051(8) -0.00051(8)
Ga2 Ga 0.00332(10) 0.00332(10) 0.00332(10) -0.00051(8) -0.00051(8) -0.00051(8)
O O 0.00415(8) 0.00415(8) 0.00415(8) -0.00030(8) -0.00030(8) -0.00030(8)
loop_
_atom_type_symbol
_atom_type_scat_length_neutron
_atom_type_scat_source
Zn 5.680 International_Tables_Vol_C
Ga 7.288 International_Tables_Vol_C
O 5.803 International_Tables_Vol_C
loop_
_pd_proc_point_id
_pd_proc_2theta_corrected
_pd_proc_intensity_net
_pd_calc_intensity_net
_pd_proc_ls_weight
1 7.0600 705.00 702.03 12.00
2 7.1100 716.00 700.56 12.00
3 7.1600 715.00 699.10 12.00
4 7.2100 692.00 697.66 12.00
5 7.2600 710.00 696.23 12.00
6 7.3100 703.00 694.81 12.00
7 7.3600 701.00 693.41 12.00
8 7.4100 706.00 692.02 12.00
9 7.4600 682.00 690.65 12.00
10 7.5100 717.00 689.29 12.00
11 7.5600 720.00 687.95 12.00
12 7.6100 687.00 686.61 12.00
13 7.6600 678.00 685.30 12.00
14 7.7100 697.00 683.99 12.00
15 7.7600 683.00 682.70 12.00
16 7.8100 661.00 681.41 11.00
17 7.8600 679.00 680.15 12.00
18 7.9100 680.00 678.89 12.00
19 7.9600 691.00 677.65 12.00
20 8.0100 679.00 676.41 12.00
21 8.0600 676.00 675.19 12.00
22 8.1100 675.00 673.98 12.00
23 8.1600 656.00 672.78 11.00
24 8.2100 645.00 671.59 11.00
25 8.2600 672.00 670.42 12.00
26 8.3100 646.00 669.25 11.00
27 8.3600 673.00 668.09 13.00
28 8.4100 657.00 666.95 13.00
29 8.4600 667.00 665.82 13.00
30 8.5100 649.00 664.69 13.00
31 8.5600 647.00 663.58 13.00
32 8.6100 650.00 662.47 13.00
33 8.6600 667.00 661.38 13.00
34 8.7100 651.00 660.29 13.00
35 8.7600 652.00 659.22 13.00
36 8.8100 673.00 658.15 13.00
37 8.8600 661.00 657.09 13.00
38 8.9100 653.00 656.05 13.00
39 8.9600 662.00 655.01 13.00
40 9.0100 668.00 653.98 13.00
41 9.0600 667.00 652.96 13.00
42 9.1100 648.00 651.95 13.00
43 9.1600 662.00 650.94 13.00
44 9.2100 641.00 649.95 13.00
45 9.2600 654.00 648.96 13.00
46 9.3100 657.00 647.98 13.00
47 9.3600 629.00 647.02 11.00
48 9.4100 655.00 646.05 11.00
49 9.4600 630.00 645.10 11.00
50 9.5100 629.00 644.16 11.00
51 9.5600 660.00 643.22 11.00
52 9.6100 659.00 642.29 11.00
53 9.6600 652.00 641.37 11.00
54 9.7100 648.00 640.45 11.00
55 9.7600 660.00 639.55 11.00
56 9.8100 628.00 638.65 11.00
57 9.8600 644.00 637.76 11.00
58 9.9100 645.00 636.87 11.00
59 9.9600 632.00 635.99 11.00
60 10.0100 636.00 635.12 11.00
61 10.0600 637.00 634.26 11.00
62 10.1100 621.00 633.41 11.00
63 10.1600 630.00 632.56 11.00
64 10.2100 630.00 631.71 11.00
65 10.2600 622.00 630.88 11.00
66 10.3100 621.00 630.05 11.00
67 10.3600 624.00 629.23 11.00
68 10.4100 640.00 628.41 11.00
69 10.4600 617.00 627.60 11.00
70 10.5100 634.00 626.80 11.00
71 10.5600 623.00 626.01 11.00
72 10.6100 608.00 625.22 11.00
73 10.6600 628.00 624.43 11.00
74 10.7100 623.00 623.66 11.00
75 10.7600 600.00 622.89 12.00
76 10.8100 616.00 622.12 12.00
77 10.8600 613.00 621.36 12.00
78 10.9100 617.00 620.61 12.00
79 10.9600 622.00 619.86 12.00
80 11.0100 598.00 619.12 12.00
81 11.0600 624.00 618.39 12.00
82 11.1100 626.00 617.66 12.00
83 11.1600 615.00 616.93 12.00
84 11.2100 614.00 616.22 12.00
85 11.2600 626.00 615.51 12.00
86 11.3100 590.00 614.80 12.00
87 11.3600 592.00 614.10 12.00
88 11.4100 612.00 615.05 12.00
89 11.4600 609.00 614.42 12.00
90 11.5100 589.00 613.79 12.00
91 11.5600 596.00 613.18 12.00
92 11.6100 605.00 612.57 12.00
93 11.6600 614.00 611.97 12.00
94 11.7100 613.00 611.38 12.00
95 11.7600 611.00 610.80 11.00
96 11.8100 612.00 610.23 11.00
97 11.8600 607.00 609.67 11.00
98 11.9100 610.00 609.12 11.00
99 11.9600 620.00 608.59 11.00
100 12.0100 612.00 608.06 11.00
101 12.0600 601.00 607.54 11.00
102 12.1100 609.00 607.04 11.00
103 12.1600 605.00 606.55 11.00
104 12.2100 629.00 606.08 11.00
105 12.2600 604.00 605.61 11.00
106 12.3100 602.00 605.17 11.00
107 12.3600 605.00 604.74 11.00
108 12.4100 605.00 604.33 11.00
109 12.4600 601.00 603.94 11.00
110 12.5100 589.00 603.57 11.00
111 12.5600 607.00 603.23 11.00
112 12.6100 588.00 602.91 11.00
113 12.6600 585.00 602.62 11.00
114 12.7100 607.00 602.35 11.00
115 12.7600 598.00 602.13 11.00
116 12.8100 564.00 601.94 11.00
117 12.8600 599.00 601.80 11.00
118 12.9100 571.00 601.71 11.00
119 12.9600 602.00 601.68 11.00
120 13.0100 589.00 601.72 11.00
121 13.0600 614.00 601.85 11.00
122 13.1100 596.00 602.13 11.00
123 13.1600 615.00 602.61 12.00
124 13.2100 610.00 603.44 12.00
125 13.2600 600.00 604.85 12.00
126 13.3100 624.00 607.22 12.00
127 13.3600 624.00 611.12 12.00
128 13.4100 651.00 617.29 13.00
129 13.4600 640.00 626.66 13.00
130 13.5100 687.00 640.26 13.00
131 13.5600 710.00 659.08 13.00
132 13.6100 728.00 683.94 13.00
133 13.6600 752.00 715.43 14.00
134 13.7100 774.00 753.91 14.00
135 13.7600 804.00 799.57 14.00
136 13.8100 850.00 852.66 15.00
137 13.8600 906.00 913.66 15.00
138 13.9100 989.00 983.45 16.00
139 13.9600 1055.00 1063.50 16.00
140 14.0100 1134.00 1156.08 17.00
141 14.0600 1233.00 1264.40 18.00
142 14.1100 1354.00 1392.59 18.00
143 14.1600 1492.00 1545.36 17.00
144 14.2100 1648.00 1726.75 18.00
145 14.2600 1873.00 1937.92 19.00
146 14.3100 2138.00 2173.89 21.00
147 14.3600 2421.00 2420.12 22.00
148 14.4100 2625.00 2650.71 23.00
149 14.4600 2830.00 2830.23 24.00
150 14.5100 2936.00 2920.16 24.00
151 14.5600 2899.00 2889.47 24.00
152 14.6100 2784.00 2726.89 24.00
153 14.6600 2453.00 2450.01 22.00
154 14.7100 2151.00 2102.90 21.00
155 14.7600 1760.00 1739.80 19.00
156 14.8100 1403.00 1407.22 17.00
157 14.8600 1081.00 1134.22 15.00
158 14.9100 862.00 930.97 13.00
159 14.9600 737.00 792.59 12.00
160 15.0100 645.00 705.76 11.00
161 15.0600 599.00 654.98 11.00
162 15.1100 603.00 626.77 11.00
163 15.1600 597.00 611.40 11.00
164 15.2100 589.00 602.76 11.00
165 15.2600 573.00 597.47 11.00
166 15.3100 570.00 593.82 11.00
167 15.3600 588.00 591.00 11.00
168 15.4100 572.00 588.68 11.00
169 15.4600 570.00 586.68 11.00
170 15.5100 577.00 584.92 12.00
171 15.5600 590.00 583.36 12.00
172 15.6100 586.00 581.95 12.00
173 15.6600 585.00 580.68 12.00
174 15.7100 591.00 579.52 12.00
175 15.7600 563.00 578.45 12.00
176 15.8100 579.00 577.47 12.00
177 15.8600 568.00 576.55 12.00
178 15.9100 563.00 575.70 12.00
179 15.9600 559.00 574.90 12.00
180 16.0100 566.00 574.15 12.00
181 16.0600 589.00 573.44 12.00
182 16.1100 576.00 572.76 12.00
183 16.1600 565.00 572.12 12.00
184 16.2100 587.00 571.51 12.00
185 16.2600 576.00 570.92 12.00
186 16.3100 570.00 570.36 12.00
187 16.3600 585.00 569.83 12.00
188 16.4100 561.00 569.30 12.00
189 16.4600 572.00 568.80 12.00
190 16.5100 572.00 568.32 12.00
191 16.5600 559.00 567.85 11.00
192 16.6100 580.00 567.39 11.00
193 16.6600 567.00 566.95 11.00
194 16.7100 580.00 566.52 11.00
195 16.7600 570.00 566.10 11.00
196 16.8100 579.00 565.69 11.00
197 16.8600 558.00 565.29 11.00
198 16.9100 581.00 564.90 11.00
199 16.9600 578.00 564.52 11.00
200 17.0100 580.00 564.14 11.00
201 17.0600 575.00 563.78 11.00
202 17.1100 556.00 563.42 11.00
203 17.1600 572.00 563.07 11.00
204 17.2100 566.00 562.72 11.00
205 17.2600 565.00 562.38 11.00
206 17.3100 560.00 562.05 11.00
207 17.3600 566.00 561.72 11.00
208 17.4100 570.00 561.40 11.00
209 17.4600 568.00 561.08 11.00
210 17.5100 559.00 560.77 11.00
211 17.5600 548.00 560.46 10.00
212 17.6100 551.00 560.16 10.00
213 17.6600 571.00 559.86 11.00
214 17.7100 543.00 559.57 10.00
215 17.7600 582.00 559.28 11.00
216 17.8100 563.00 558.99 11.00
217 17.8600 563.00 558.71 11.00
218 17.9100 566.00 557.20 12.00
219 17.9600 572.00 556.96 12.00
220 18.0100 579.00 556.72 12.00
221 18.0600 575.00 556.49 12.00
222 18.1100 566.00 556.26 12.00
223 18.1600 565.00 556.03 12.00
224 18.2100 569.00 555.80 12.00
225 18.2600 591.00 555.57 12.00
226 18.3100 588.00 555.35 12.00
227 18.3600 554.00 555.13 12.00
228 18.4100 576.00 554.91 12.00
229 18.4600 576.00 554.69 12.00
230 18.5100 576.00 554.48 12.00
231 18.5600 550.00 554.26 12.00
232 18.6100 576.00 554.05 12.00
233 18.6600 546.00 553.84 12.00
234 18.7100 546.00 553.64 12.00
235 18.7600 558.00 553.43 12.00
236 18.8100 568.00 553.23 12.00
237 18.8600 545.00 553.02 12.00
238 18.9100 550.00 552.82 12.00
239 18.9600 568.00 552.63 11.00
240 19.0100 575.00 552.43 11.00
241 19.0600 574.00 552.24 11.00
242 19.1100 572.00 552.04 11.00
243 19.1600 573.00 551.85 11.00
244 19.2100 560.00 551.67 11.00
245 19.2600 553.00 551.48 10.00
246 19.3100 562.00 551.29 11.00
247 19.3600 571.00 551.11 11.00
248 19.4100 562.00 550.93 11.00
249 19.4600 555.00 550.75 11.00
250 19.5100 554.00 550.57 10.00
251 19.5600 563.00 550.40 11.00
252 19.6100 555.00 550.22 11.00
253 19.6600 567.00 550.05 11.00
254 19.7100 547.00 549.88 10.00
255 19.7600 560.00 549.71 11.00
256 19.8100 564.00 549.54 11.00
257 19.8600 558.00 549.38 11.00
258 19.9100 562.00 549.22 11.00
259 19.9600 561.00 549.05 11.00
260 20.0100 564.00 548.89 11.00
261 20.0600 557.00 548.73 11.00
262 20.1100 563.00 548.58 11.00
263 20.1600 548.00 548.42 10.00
264 20.2100 529.00 548.27 10.00
265 20.2600 591.00 548.11 11.00
266 20.3100 566.00 547.96 12.00
267 20.3600 573.00 547.81 12.00
268 20.4100 570.00 547.67 12.00
269 20.4600 547.00 547.52 12.00
270 20.5100 568.00 547.38 12.00
271 20.5600 576.00 547.23 12.00
272 20.6100 547.00 547.09 12.00
273 20.6600 562.00 546.95 12.00
274 20.7100 567.00 546.81 12.00
275 20.7600 556.00 546.68 12.00
276 20.8100 570.00 546.54 12.00
277 20.8600 575.00 546.41 12.00
278 20.9100 580.00 546.27 12.00
279 20.9600 575.00 546.14 12.00
280 21.0100 572.00 546.01 12.00
281 21.0600 556.00 547.22 12.00
282 21.1100 556.00 547.14 12.00
283 21.1600 553.00 547.07 12.00
284 21.2100 556.00 547.00 12.00
285 21.2600 578.00 546.93 12.00
286 21.3100 552.00 546.87 10.00
287 21.3600 556.00 546.81 11.00
288 21.4100 564.00 546.76 11.00
289 21.4600 554.00 546.72 10.00
290 21.5100 567.00 546.68 11.00
291 21.5600 557.00 546.65 11.00
292 21.6100 550.00 546.62 10.00
293 21.6600 555.00 546.61 11.00
294 21.7100 549.00 546.59 10.00
295 21.7600 544.00 546.59 10.00
296 21.8100 564.00 546.60 11.00
297 21.8600 570.00 546.62 11.00
298 21.9100 552.00 546.65 10.00
299 21.9600 558.00 546.69 11.00
300 22.0100 532.00 546.74 10.00
301 22.0600 540.00 546.81 10.00
302 22.1100 578.00 546.89 11.00
303 22.1600 546.00 546.99 10.00
304 22.2100 537.00 547.11 10.00
305 22.2600 543.00 547.26 10.00
306 22.3100 557.00 547.42 11.00
307 22.3600 568.00 547.62 11.00
308 22.4100 546.00 547.85 10.00
309 22.4600 551.00 548.11 10.00
310 22.5100 549.00 548.41 10.00
311 22.5600 562.00 548.76 11.00
312 22.6100 555.00 549.17 11.00
313 22.6600 547.00 549.64 10.00
314 22.7100 550.00 550.19 12.00
315 22.7600 557.00 550.82 12.00
316 22.8100 559.00 551.57 12.00
317 22.8600 558.00 552.45 12.00
318 22.9100 554.00 553.52 12.00
319 22.9600 555.00 554.87 12.00
320 23.0100 542.00 556.66 12.00
321 23.0600 565.00 559.23 12.00
322 23.1100 585.00 563.19 12.00
323 23.1600 562.00 569.57 12.00
324 23.2100 611.00 580.00 12.00
325 23.2600 629.00 596.74 13.00
326 23.3100 647.00 622.77 13.00
327 23.3600 681.00 661.62 13.00
328 23.4100 748.00 717.27 14.00
329 23.4600 819.00 794.07 14.00
330 23.5100 890.00 896.82 15.00
331 23.5600 1012.00 1030.85 16.00
332 23.6100 1149.00 1201.23 17.00
333 23.6600 1364.00 1410.41 18.00
334 23.7100 1568.00 1654.10 20.00
335 23.7600 1821.00 1916.15 19.00
336 23.8100 2110.00 2165.57 21.00
337 23.8600 2327.00 2358.81 22.00
338 23.9100 2468.00 2449.21 22.00
339 23.9600 2385.00 2403.08 22.00
340 24.0100 2239.00 2217.80 21.00
341 24.0600 1993.00 1930.12 20.00
342 24.1100 1665.00 1600.98 18.00
343 24.1600 1330.00 1288.43 16.00
344 24.2100 1035.00 1030.55 14.00
345 24.2600 815.00 841.82 13.00
346 24.3100 691.00 717.78 12.00
347 24.3600 601.00 643.72 11.00
348 24.4100 576.00 602.90 11.00
349 24.4600 562.00 581.52 11.00
350 24.5100 576.00 570.37 11.00
351 24.5600 549.00 564.16 10.00
352 24.6100 543.00 560.27 10.00
353 24.6600 554.00 557.50 10.00
354 24.7100 553.00 555.33 10.00
355 24.7600 560.00 553.55 11.00
356 24.8100 549.00 552.05 10.00
357 24.8600 558.00 550.77 11.00
358 24.9100 544.00 549.67 10.00
359 24.9600 541.00 548.71 10.00
360 25.0100 565.00 547.87 11.00
361 25.0600 545.00 547.13 10.00
362 25.1100 547.00 546.47 12.00
363 25.1600 561.00 545.88 12.00
364 25.2100 563.00 545.36 12.00
365 25.2600 548.00 544.88 12.00
366 25.3100 551.00 544.46 12.00
367 25.3600 534.00 544.07 12.00
368 25.4100 540.00 549.96 12.00
369 25.4600 522.00 549.88 11.00
370 25.5100 534.00 549.83 12.00
371 25.5600 566.00 549.82 12.00
372 25.6100 540.00 549.85 12.00
373 25.6600 540.00 549.91 12.00
374 25.7100 549.00 550.01 12.00
375 25.7600 559.00 550.15 12.00
376 25.8100 547.00 550.32 12.00
377 25.8600 547.00 550.53 12.00
378 25.9100 554.00 550.77 12.00
379 25.9600 543.00 551.06 12.00
380 26.0100 551.00 551.38 12.00
381 26.0600 546.00 551.75 12.00
382 26.1100 552.00 552.16 12.00
383 26.1600 557.00 552.62 11.00
384 26.2100 543.00 553.14 10.00
385 26.2600 536.00 553.71 10.00
386 26.3100 556.00 554.35 11.00
387 26.3600 554.00 555.05 10.00
388 26.4100 554.00 555.83 10.00
389 26.4600 545.00 556.70 10.00
390 26.5100 541.00 557.66 10.00
391 26.5600 554.00 558.73 10.00
392 26.6100 561.00 559.91 11.00
393 26.6600 564.00 561.23 11.00
394 26.7100 544.00 563.82 10.00
395 26.7600 531.00 565.51 10.00
396 26.8100 542.00 567.41 10.00
397 26.8600 568.00 569.55 11.00
398 26.9100 567.00 571.96 11.00
399 26.9600 564.00 574.71 11.00
400 27.0100 566.00 576.75 11.00
401 27.0600 575.00 580.37 11.00
402 27.1100 555.00 584.54 11.00
403 27.1600 558.00 589.41 11.00
404 27.2100 568.00 595.15 11.00
405 27.2600 562.00 602.11 11.00
406 27.3100 598.00 610.92 11.00
407 27.3600 593.00 622.87 11.00
408 27.4100 632.00 640.50 11.00
409 27.4600 693.00 668.58 12.00
410 27.5100 728.00 715.31 13.00
411 27.5600 872.00 793.60 15.00
412 27.6100 997.00 922.09 16.00
413 27.6600 1189.00 1125.48 17.00
414 27.7100 1501.00 1434.33 19.00
415 27.7600 1905.00 1883.59 22.00
416 27.8100 2430.00 2509.64 25.00
417 27.8600 3162.00 3343.01 28.00
418 27.9100 4207.00 4392.69 32.00
419 27.9600 5315.00 5621.50 36.00
420 28.0100 6659.00 6919.48 41.00
421 28.0600 7921.00 8094.45 44.00
422 28.1100 8668.00 8898.71 47.00
423 28.1600 9053.00 9098.26 48.00
424 28.2100 8623.00 8576.22 46.00
425 28.2600 7638.00 7424.37 44.00
426 28.3100 6241.00 5923.63 39.00
427 28.3600 4695.00 4398.74 34.00
428 28.4100 3259.00 3090.26 29.00
429 28.4600 2153.00 2110.85 23.00
430 28.5100 1438.00 1460.90 19.00
431 28.5600 989.00 1073.58 14.00
432 28.6100 816.00 862.98 13.00
433 28.6600 721.00 755.84 12.00
434 28.7100 676.00 703.02 12.00
435 28.7600 643.00 677.31 11.00
436 28.8100 624.00 666.40 11.00
437 28.8600 655.00 666.62 11.00
438 28.9100 664.00 679.01 11.00
439 28.9600 675.00 707.36 12.00
440 29.0100 740.00 757.29 12.00
441 29.0600 834.00 835.60 13.00
442 29.1100 933.00 949.33 14.00
443 29.1600 1071.00 1103.84 15.00
444 29.2100 1282.00 1299.35 16.00
445 29.2600 1486.00 1525.80 17.00
446 29.3100 1767.00 1758.37 19.00
447 29.3600 1957.00 1957.17 20.00
448 29.4100 2050.00 2074.62 20.00
449 29.4600 2084.00 2071.01 20.00
450 29.5100 1956.00 1935.24 20.00
451 29.5600 1716.00 1697.89 19.00
452 29.6100 1424.00 1417.69 17.00
453 29.6600 1168.00 1151.46 15.00
454 29.7100 907.00 935.30 13.00
455 29.7600 754.00 781.49 12.00
456 29.8100 649.00 684.00 11.00
457 29.8600 577.00 628.08 11.00
458 29.9100 604.00 598.27 12.00
459 29.9600 584.00 582.83 12.00
460 30.0100 563.00 574.49 12.00
461 30.0600 570.00 569.44 12.00
462 30.1100 538.00 565.91 12.00
463 30.1600 563.00 563.18 12.00
464 30.2100 575.00 560.92 12.00
465 30.2600 545.00 559.01 12.00
466 30.3100 560.00 557.36 12.00
467 30.3600 558.00 555.92 12.00
468 30.4100 534.00 554.65 12.00
469 30.4600 557.00 553.53 12.00
470 30.5100 550.00 552.53 12.00
471 30.5600 559.00 551.64 12.00
472 30.6100 571.00 550.83 12.00
473 30.6600 553.00 550.10 12.00
474 30.7100 534.00 549.44 12.00
475 30.7600 539.00 548.83 12.00
476 30.8100 541.00 548.28 12.00
477 30.8600 551.00 547.77 12.00
478 30.9100 534.00 547.29 12.00
479 30.9600 545.00 546.86 10.00
480 31.0100 552.00 546.46 10.00
481 31.0600 542.00 546.08 10.00
482 31.1100 545.00 540.57 10.00
483 31.1600 543.00 540.41 10.00
484 31.2100 545.00 540.27 10.00
485 31.2600 555.00 540.14 11.00
486 31.3100 551.00 540.02 10.00
487 31.3600 537.00 539.91 10.00
488 31.4100 541.00 539.80 10.00
489 31.4600 556.00 539.71 11.00
490 31.5100 551.00 539.62 10.00
491 31.5600 541.00 550.77 10.00
492 31.6100 554.00 551.15 10.00
493 31.6600 546.00 551.55 10.00
494 31.7100 548.00 552.00 10.00
495 31.7600 561.00 552.48 11.00
496 31.8100 557.00 552.99 11.00
497 31.8600 534.00 553.56 10.00
498 31.9100 553.00 554.16 10.00
499 31.9600 556.00 554.82 11.00
500 32.0100 541.00 555.53 10.00
501 32.0600 545.00 556.30 10.00
502 32.1100 545.00 557.13 10.00
503 32.1600 554.00 558.03 10.00
504 32.2100 561.00 559.01 11.00
505 32.2600 548.00 560.07 12.00
506 32.3100 552.00 561.22 12.00
507 32.3600 571.00 561.55 12.00
508 32.4100 521.00 562.95 11.00
509 32.4600 547.00 564.49 12.00
510 32.5100 554.00 566.16 12.00
511 32.5600 557.00 568.00 12.00
512 32.6100 560.00 570.03 12.00
513 32.6600 571.00 572.26 12.00
514 32.7100 559.00 574.74 12.00
515 32.7600 554.00 577.49 12.00
516 32.8100 565.00 580.56 12.00
517 32.8600 580.00 584.00 12.00
518 32.9100 589.00 587.87 12.00
519 32.9600 600.00 592.24 12.00
520 33.0100 596.00 597.22 12.00
521 33.0600 605.00 602.91 12.00
522 33.1100 629.00 609.45 13.00
523 33.1600 630.00 617.03 13.00
524 33.2100 642.00 625.89 13.00
525 33.2600 660.00 636.34 13.00
526 33.3100 673.00 648.86 13.00
527 33.3600 663.00 664.26 11.00
528 33.4100 688.00 684.10 12.00
529 33.4600 721.00 711.70 12.00
530 33.5100 787.00 753.98 13.00
531 33.5600 878.00 824.68 13.00
532 33.6100 1044.00 948.83 14.00
533 33.6600 1290.00 1167.95 16.00
534 33.7100 1651.00 1544.50 18.00
535 33.7600 2278.00 2163.14 21.00
536 33.8100 3207.00 3123.37 25.00
537 33.8600 4502.00 4516.98 30.00
538 33.9100 6289.00 6384.84 35.00
539 33.9600 8394.00 8653.77 41.00
540 34.0100 10909.00 11077.80 47.00
541 34.0600 13118.00 13225.30 51.00
542 34.1100 14398.00 14556.50 54.00
543 34.1600 14536.00 14609.20 54.00
544 34.2100 13246.00 13258.70 51.00
545 34.2600 10946.00 10875.40 47.00
546 34.3100 8154.00 8125.90 40.00
547 34.3600 5504.00 5605.49 33.00
548 34.4100 3488.00 3650.60 26.00
549 34.4600 2106.00 2333.32 21.00
550 34.5100 1421.00 1548.37 17.00
551 34.5600 1053.00 1126.24 14.00
552 34.6100 896.00 914.08 13.00
553 34.6600 802.00 808.15 13.00
554 34.7100 752.00 751.00 14.00
555 34.7600 713.00 715.47 13.00
556 34.8100 686.00 690.18 13.00
557 34.8600 659.00 670.51 13.00
558 34.9100 631.00 654.54 13.00
559 34.9600 638.00 641.32 13.00
560 35.0100 619.00 630.21 12.00
561 35.0600 606.00 620.79 12.00
562 35.1100 605.00 612.74 12.00
563 35.1600 582.00 605.80 12.00
564 35.2100 583.00 599.78 12.00
565 35.2600 581.00 594.52 12.00
566 35.3100 590.00 589.91 12.00
567 35.3600 539.00 585.84 12.00
568 35.4100 577.00 582.22 12.00
569 35.4600 557.00 579.01 12.00
570 35.5100 559.00 576.13 12.00
571 35.5600 575.00 573.54 12.00
572 35.6100 564.00 571.21 12.00
573 35.6600 556.00 569.10 12.00
574 35.7100 545.00 567.18 12.00
575 35.7600 546.00 565.44 10.00
576 35.8100 555.00 563.85 11.00
577 35.8600 575.00 562.40 11.00
578 35.9100 541.00 561.06 10.00
579 35.9600 553.00 559.83 10.00
580 36.0100 568.00 558.70 11.00
581 36.0600 543.00 557.66 10.00
582 36.1100 531.00 556.70 10.00
583 36.1600 546.00 555.80 10.00
584 36.2100 530.00 554.98 10.00
585 36.2600 555.00 554.21 11.00
586 36.3100 548.00 553.50 10.00
587 36.3600 555.00 552.83 11.00
588 36.4100 542.00 552.22 10.00
589 36.4600 532.00 551.65 10.00
590 36.5100 559.00 551.12 11.00
591 36.5600 535.00 550.63 10.00
592 36.6100 542.00 550.18 10.00
593 36.6600 542.00 549.78 10.00
594 36.7100 535.00 549.43 10.00
595 36.7600 533.00 549.18 10.00
596 36.8100 538.00 549.06 10.00
597 36.8600 534.00 549.20 10.00
598 36.9100 555.00 540.28 11.00
599 36.9600 554.00 541.86 10.00
600 37.0100 542.00 544.41 10.00
601 37.0600 560.00 548.22 11.00
602 37.1100 555.00 553.39 12.00
603 37.1600 564.00 559.61 12.00
604 37.2100 581.00 566.04 12.00
605 37.2600 587.00 571.29 12.00
606 37.3100 596.00 573.81 12.00
607 37.3600 574.00 572.50 12.00
608 37.4100 579.00 567.59 12.00
609 37.4600 588.00 560.65 12.00
610 37.5100 561.00 553.58 12.00
611 37.5600 548.00 547.71 12.00
612 37.6100 538.00 543.55 12.00
613 37.6600 534.00 540.99 12.00
614 37.7100 539.00 539.58 12.00
615 37.7600 535.00 538.87 12.00
616 37.8100 529.00 538.52 11.00
617 37.8600 567.00 538.33 12.00
618 37.9100 572.00 538.21 12.00
619 37.9600 523.00 538.13 11.00
620 38.0100 548.00 538.06 12.00
621 38.0600 545.00 538.01 12.00
622 38.1100 532.00 537.96 12.00
623 38.1600 534.00 537.92 10.00
624 38.2100 541.00 537.88 10.00
625 38.2600 540.00 537.85 10.00
626 38.3100 547.00 537.82 10.00
627 38.3600 539.00 537.79 10.00
628 38.4100 527.00 537.76 10.00
629 38.4600 529.00 537.74 10.00
630 38.5100 535.00 537.72 10.00
631 38.5600 539.00 537.70 10.00
632 38.6100 533.00 537.67 10.00
633 38.6600 529.00 537.66 10.00
634 38.7100 527.00 537.64 10.00
635 38.7600 523.00 537.62 10.00
636 38.8100 548.00 537.60 10.00
637 38.8600 536.00 537.58 10.00
638 38.9100 540.00 537.56 10.00
639 38.9600 544.00 537.54 10.00
640 39.0100 546.00 537.53 10.00
641 39.0600 523.00 537.51 10.00
642 39.1100 543.00 537.49 10.00
643 39.1600 542.00 537.48 10.00
644 39.2100 540.00 537.46 10.00
645 39.2600 538.00 537.44 10.00
646 39.3100 518.00 537.42 10.00
647 39.3600 547.00 537.41 10.00
648 39.4100 538.00 537.39 10.00
649 39.4600 536.00 537.37 10.00
650 39.5100 539.00 537.35 12.00
651 39.5600 544.00 537.34 12.00
652 39.6100 533.00 537.32 12.00
653 39.6600 548.00 537.30 12.00
654 39.7100 546.00 537.28 12.00
655 39.7600 539.00 538.34 12.00
656 39.8100 565.00 538.36 12.00
657 39.8600 545.00 538.39 12.00
658 39.9100 542.00 538.43 12.00
659 39.9600 554.00 538.46 12.00
660 40.0100 557.00 538.48 12.00
661 40.0600 536.00 538.53 12.00
662 40.1100 537.00 538.58 12.00
663 40.1600 544.00 538.63 12.00
664 40.2100 549.00 538.69 12.00
665 40.2600 557.00 538.76 12.00
666 40.3100 547.00 538.84 12.00
667 40.3600 555.00 538.92 12.00
668 40.4100 560.00 539.01 12.00
669 40.4600 547.00 539.11 12.00
670 40.5100 549.00 539.22 12.00
671 40.5600 543.00 539.34 10.00
672 40.6100 565.00 539.48 11.00
673 40.6600 544.00 539.63 10.00
674 40.7100 540.00 539.80 10.00
675 40.7600 544.00 539.99 10.00
676 40.8100 518.00 540.21 10.00
677 40.8600 548.00 540.45 10.00
678 40.9100 542.00 540.72 10.00
679 40.9600 557.00 541.03 11.00
680 41.0100 541.00 541.39 10.00
681 41.0600 552.00 541.79 10.00
682 41.1100 541.00 542.26 10.00
683 41.1600 551.00 542.80 10.00
684 41.2100 556.00 543.43 11.00
685 41.2600 551.00 544.18 10.00
686 41.3100 543.00 545.06 10.00
687 41.3600 557.00 546.11 11.00
688 41.4100 540.00 547.38 10.00
689 41.4600 557.00 548.94 11.00
690 41.5100 568.00 550.92 11.00
691 41.5600 556.00 553.60 11.00
692 41.6100 556.00 557.58 11.00
693 41.6600 566.00 564.23 11.00
694 41.7100 563.00 576.47 11.00
695 41.7600 601.00 599.75 11.00
696 41.8100 665.00 643.16 12.00
697 41.8600 752.00 719.36 12.00
698 41.9100 871.00 842.11 15.00
699 41.9600 1029.00 1019.24 16.00
700 42.0100 1248.00 1242.50 18.00
701 42.0600 1470.00 1478.94 19.00
702 42.1100 1655.00 1671.83 20.00
703 42.1600 1806.00 1756.30 21.00
704 42.2100 1733.00 1691.64 21.00
705 42.2600 1517.00 1496.51 19.00
706 42.3100 1281.00 1241.71 18.00
707 42.3600 1047.00 999.77 16.00
708 42.4100 800.00 812.84 14.00
709 42.4600 682.00 690.49 13.00
710 42.5100 623.00 631.71 12.00
711 42.5600 606.00 596.77 12.00
712 42.6100 574.00 580.24 12.00
713 42.6600 555.00 572.33 12.00
714 42.7100 586.00 568.13 12.00
715 42.7600 571.00 565.58 12.00
716 42.8100 554.00 563.87 12.00
717 42.8600 573.00 562.72 12.00
718 42.9100 588.00 561.96 12.00
719 42.9600 557.00 561.53 11.00
720 43.0100 572.00 561.37 11.00
721 43.0600 562.00 561.45 11.00
722 43.1100 567.00 561.74 11.00
723 43.1600 552.00 562.23 10.00
724 43.2100 546.00 562.92 10.00
725 43.2600 552.00 563.79 10.00
726 43.3100 563.00 564.86 11.00
727 43.3600 569.00 566.14 11.00
728 43.4100 575.00 567.63 11.00
729 43.4600 568.00 569.36 11.00
730 43.5100 572.00 571.34 11.00
731 43.5600 567.00 573.63 11.00
732 43.6100 568.00 576.24 11.00
733 43.6600 583.00 579.23 11.00
734 43.7100 584.00 582.67 11.00
735 43.7600 571.00 586.62 11.00
736 43.8100 601.00 591.18 11.00
737 43.8600 576.00 596.47 11.00
738 43.9100 605.00 602.65 11.00
739 43.9600 630.00 609.89 11.00
740 44.0100 612.00 618.46 11.00
741 44.0600 620.00 628.69 11.00
742 44.1100 635.00 641.01 11.00
743 44.1600 659.00 656.08 11.00
744 44.2100 690.00 674.91 12.00
745 44.2600 704.00 699.44 12.00
746 44.3100 770.00 734.03 14.00
747 44.3600 839.00 788.88 14.00
748 44.4100 1012.00 887.14 16.00
749 44.4600 1235.00 1076.41 18.00
750 44.5100 1640.00 1442.53 20.00
751 44.5600 2256.00 2115.94 24.00
752 44.6100 3346.00 3251.69 29.00
753 44.6600 4927.00 4959.32 35.00
754 44.7100 7093.00 7182.47 42.00
755 44.7600 9431.00 9594.69 49.00
756 44.8100 11396.00 11588.90 53.00
757 44.8600 12373.00 12455.70 56.00
758 44.9100 11763.00 11755.50 54.00
759 44.9600 10007.00 9723.79 50.00
760 45.0100 7439.00 7146.26 43.00
761 45.0600 4915.00 4773.42 35.00
762 45.1100 3019.00 3002.76 27.00
763 45.1600 1880.00 1887.49 22.00
764 45.2100 1264.00 1278.22 18.00
765 45.2600 1009.00 978.25 16.00
766 45.3100 880.00 835.86 15.00
767 45.3600 810.00 763.62 13.00
768 45.4100 751.00 720.80 12.00
769 45.4600 723.00 691.18 12.00
770 45.5100 702.00 668.64 12.00
771 45.5600 685.00 650.70 12.00
772 45.6100 666.00 636.10 12.00
773 45.6600 624.00 624.05 11.00
774 45.7100 618.00 613.98 11.00
775 45.7600 608.00 605.49 11.00
776 45.8100 611.00 598.27 11.00
777 45.8600 589.00 592.06 11.00
778 45.9100 598.00 586.70 11.00
779 45.9600 599.00 582.03 11.00
780 46.0100 578.00 577.95 11.00
781 46.0600 593.00 574.35 11.00
782 46.1100 583.00 571.16 11.00
783 46.1600 583.00 568.32 11.00
784 46.2100 585.00 565.78 11.00
785 46.2600 564.00 563.51 11.00
786 46.3100 588.00 561.45 11.00
787 46.3600 575.00 559.60 11.00
788 46.4100 587.00 557.91 11.00
789 46.4600 574.00 556.38 11.00
790 46.5100 573.00 554.97 11.00
791 46.5600 569.00 553.69 11.00
792 46.6100 586.00 552.51 11.00
793 46.6600 577.00 551.42 11.00
794 46.7100 546.00 550.42 12.00
795 46.7600 582.00 549.49 12.00
796 46.8100 574.00 548.62 12.00
797 46.8600 568.00 578.39 12.00
798 46.9100 564.00 579.06 12.00
799 46.9600 554.00 579.87 12.00
800 47.0100 576.00 580.84 12.00
801 47.0600 566.00 581.96 12.00
802 47.1100 578.00 583.26 12.00
803 47.1600 583.00 584.74 12.00
804 47.2100 585.00 586.41 12.00
805 47.2600 588.00 588.30 12.00
806 47.3100 580.00 590.40 12.00
807 47.3600 576.00 583.28 12.00
808 47.4100 583.00 586.28 12.00
809 47.4600 591.00 589.55 12.00
810 47.5100 604.00 593.14 12.00
811 47.5600 586.00 597.09 12.00
812 47.6100 610.00 601.44 12.00
813 47.6600 629.00 606.26 13.00
814 47.7100 630.00 611.61 13.00
815 47.7600 603.00 617.57 11.00
816 47.8100 622.00 624.23 11.00
817 47.8600 619.00 631.72 11.00
818 47.9100 646.00 640.16 11.00
819 47.9600 633.00 649.73 11.00
820 48.0100 645.00 660.65 11.00
821 48.0600 668.00 673.16 12.00
822 48.1100 670.00 687.59 12.00
823 48.1600 686.00 704.36 12.00
824 48.2100 689.00 723.98 12.00
825 48.2600 700.00 747.15 12.00
826 48.3100 725.00 774.77 12.00
827 48.3600 775.00 808.03 12.00
828 48.4100 807.00 848.60 13.00
829 48.4600 842.00 898.97 13.00
830 48.5100 920.00 963.38 14.00
831 48.5600 1036.00 1050.66 14.00
832 48.6100 1164.00 1182.02 15.00
833 48.6600 1489.00 1409.30 17.00
834 48.7100 2032.00 1850.00 20.00
835 48.7600 3027.00 2736.43 25.00
836 48.8100 4791.00 4450.54 31.00
837 48.8600 7754.00 7474.56 39.00
838 48.9100 12409.00 12166.00 50.00
839 48.9600 18394.00 18348.70 61.00
840 49.0100 25157.00 24942.80 71.00
841 49.0600 30050.00 29996.40 78.00
842 49.1100 31372.00 31387.10 89.00
843 49.1600 28539.00 28226.90 84.00
844 49.2100 22232.00 21915.90 75.00
845 49.2600 15050.00 14966.00 61.00
846 49.3100 9063.00 9216.62 48.00
847 49.3600 5017.00 5332.25 35.00
848 49.4100 2914.00 3112.97 27.00
849 49.4600 1912.00 2000.71 22.00
850 49.5100 1524.00 1480.14 20.00
851 49.5600 1306.00 1227.92 18.00
852 49.6100 1169.00 1086.78 17.00
853 49.6600 1049.00 993.13 16.00
854 49.7100 971.00 923.63 16.00
855 49.7600 903.00 869.22 15.00
856 49.8100 832.00 825.50 14.00
857 49.8600 800.00 789.83 14.00
858 49.9100 786.00 760.38 14.00
859 49.9600 750.00 735.79 14.00
860 50.0100 722.00 715.09 13.00
861 50.0600 696.00 697.53 13.00
862 50.1100 648.00 682.64 13.00
863 50.1600 678.00 669.74 12.00
864 50.2100 667.00 658.61 12.00
865 50.2600 640.00 648.97 11.00
866 50.3100 634.00 640.60 11.00
867 50.3600 649.00 633.33 11.00
868 50.4100 629.00 627.01 11.00
869 50.4600 609.00 621.56 11.00
870 50.5100 614.00 616.88 11.00
871 50.5600 599.00 612.91 11.00
872 50.6100 588.00 609.62 11.00
873 50.6600 589.00 606.99 11.00
874 50.7100 605.00 605.03 11.00
875 50.7600 589.00 603.77 11.00
876 50.8100 596.00 603.27 11.00
877 50.8600 602.00 603.66 11.00
878 50.9100 607.00 605.12 11.00
879 50.9600 603.00 608.03 11.00
880 51.0100 590.00 613.27 11.00
881 51.0600 625.00 623.04 11.00
882 51.1100 640.00 642.84 11.00
883 51.1600 681.00 684.88 12.00
884 51.2100 793.00 772.21 13.00
885 51.2600 982.00 939.32 14.00
886 51.3100 1214.00 1221.76 16.00
887 51.3600 1633.00 1629.05 18.00
888 51.4100 2119.00 2109.49 21.00
889 51.4600 2484.00 2507.69 22.00
890 51.5100 2750.00 2710.04 26.00
891 51.5600 2564.00 2575.52 25.00
892 51.6100 2221.00 2162.58 24.00
893 51.6600 1675.00 1657.12 20.00
894 51.7100 1247.00 1217.50 18.00
895 51.7600 929.00 912.02 15.00
896 51.8100 726.00 734.88 13.00
897 51.8600 662.00 646.09 13.00
898 51.9100 609.00 605.78 12.00
899 51.9600 597.00 588.66 12.00
900 52.0100 598.00 583.35 12.00
901 52.0600 590.00 586.73 12.00
902 52.1100 609.00 598.83 12.00
903 52.1600 643.00 618.87 13.00
904 52.2100 657.00 642.58 13.00
905 52.2600 650.00 661.59 13.00
906 52.3100 668.00 666.20 13.00
907 52.3600 660.00 651.93 13.00
908 52.4100 663.00 624.73 13.00
909 52.4600 615.00 595.45 12.00
910 52.5100 595.00 571.69 12.00
911 52.5600 557.00 555.88 11.00
912 52.6100 556.00 546.82 11.00
913 52.6600 539.00 542.07 10.00
914 52.7100 554.00 539.55 10.00
915 52.7600 555.00 538.03 11.00
916 52.8100 551.00 536.96 10.00
917 52.8600 545.00 536.10 10.00
918 52.9100 559.00 535.39 11.00
919 52.9600 537.00 534.77 10.00
920 53.0100 549.00 534.23 10.00
921 53.0600 531.00 533.76 10.00
922 53.1100 534.00 533.33 10.00
923 53.1600 538.00 532.95 10.00
924 53.2100 527.00 532.61 10.00
925 53.2600 537.00 532.95 10.00
926 53.3100 525.00 532.70 10.00
927 53.3600 511.00 532.47 10.00
928 53.4100 532.00 532.27 10.00
929 53.4600 522.00 532.09 10.00
930 53.5100 526.00 531.92 10.00
931 53.5600 525.00 531.78 10.00
932 53.6100 519.00 531.65 10.00
933 53.6600 532.00 531.54 10.00
934 53.7100 514.00 531.44 10.00
935 53.7600 523.00 531.36 10.00
936 53.8100 533.00 531.30 10.00
937 53.8600 535.00 529.30 10.00
938 53.9100 549.00 529.34 12.00
939 53.9600 536.00 529.39 12.00
940 54.0100 534.00 529.46 12.00
941 54.0600 537.00 529.54 12.00
942 54.1100 514.00 529.64 11.00
943 54.1600 527.00 529.75 11.00
944 54.2100 525.00 529.88 11.00
945 54.2600 536.00 530.04 12.00
946 54.3100 543.00 530.23 12.00
947 54.3600 524.00 530.45 11.00
948 54.4100 535.00 530.71 12.00
949 54.4600 530.00 531.02 11.00
950 54.5100 528.00 531.39 11.00
951 54.5600 522.00 531.84 11.00
952 54.6100 519.00 532.27 11.00
953 54.6600 547.00 532.94 12.00
954 54.7100 537.00 533.76 12.00
955 54.7600 535.00 534.80 12.00
956 54.8100 532.00 536.12 12.00
957 54.8600 539.00 537.90 12.00
958 54.9100 550.00 540.50 12.00
959 54.9600 554.00 544.91 10.00
960 55.0100 569.00 553.54 11.00
961 55.0600 578.00 571.67 11.00
962 55.1100 599.00 608.41 11.00
963 55.1600 653.00 675.25 11.00
964 55.2100 778.00 779.26 12.00
965 55.2600 881.00 911.60 13.00
966 55.3100 1015.00 1038.96 14.00
967 55.3600 1072.00 1109.95 15.00
968 55.4100 1090.00 1084.24 15.00
969 55.4600 979.00 973.44 14.00
970 55.5100 855.00 836.83 13.00
971 55.5600 694.00 714.98 12.00
972 55.6100 628.00 631.73 11.00
973 55.6600 587.00 584.67 11.00
974 55.7100 562.00 561.72 11.00
975 55.7600 533.00 551.35 10.00
976 55.8100 546.00 546.49 10.00
977 55.8600 549.00 543.86 10.00
978 55.9100 527.00 542.20 10.00
979 55.9600 546.00 541.08 10.00
980 56.0100 542.00 540.32 10.00
981 56.0600 539.00 539.82 10.00
982 56.1100 529.00 539.55 10.00
983 56.1600 546.00 539.46 10.00
984 56.2100 540.00 539.53 10.00
985 56.2600 543.00 540.89 10.00
986 56.3100 548.00 541.31 12.00
987 56.3600 526.00 541.88 11.00
988 56.4100 530.00 542.60 11.00
989 56.4600 542.00 543.49 12.00
990 56.5100 521.00 544.56 11.00
991 56.5600 538.00 545.84 12.00
992 56.6100 549.00 547.36 12.00
993 56.6600 544.00 549.16 12.00
994 56.7100 528.00 551.31 11.00
995 56.7600 553.00 553.86 12.00
996 56.8100 555.00 556.93 12.00
997 56.8600 550.00 560.64 12.00
998 56.9100 555.00 565.17 12.00
999 56.9600 558.00 570.77 12.00
1000 57.0100 539.00 577.79 12.00
1001 57.0600 595.00 586.81 12.00
1002 57.1100 600.00 598.97 12.00
1003 57.1600 615.00 617.02 12.00
1004 57.2100 665.00 648.32 13.00
1005 57.2600 707.00 711.21 13.00
1006 57.3100 824.00 844.42 14.00
1007 57.3600 1044.00 1111.62 14.00
1008 57.4100 1502.00 1583.88 17.00
1009 57.4600 2182.00 2283.58 21.00
1010 57.5100 3057.00 3107.23 25.00
1011 57.5600 3735.00 3791.04 27.00
1012 57.6100 4045.00 4002.27 28.00
1013 57.6600 3654.00 3596.59 27.00
1014 57.7100 2959.00 2803.37 24.00
1015 57.7600 2029.00 1984.82 20.00
1016 57.8100 1344.00 1361.41 16.00
1017 57.8600 914.00 980.58 13.00
1018 57.9100 771.00 787.51 12.00
1019 57.9600 713.00 706.31 12.00
1020 58.0100 672.00 686.73 12.00
1021 58.0600 736.00 713.04 12.00
1022 58.1100 795.00 793.60 13.00
1023 58.1600 966.00 942.29 14.00
1024 58.2100 1135.00 1153.52 15.00
1025 58.2600 1347.00 1379.36 16.00
1026 58.3100 1492.00 1529.59 17.00
1027 58.3600 1472.00 1516.82 17.00
1028 58.4100 1314.00 1340.66 16.00
1029 58.4600 1068.00 1096.31 15.00
1030 58.5100 857.00 877.11 13.00
1031 58.5600 725.00 724.85 12.00
1032 58.6100 630.00 637.85 11.00
1033 58.6600 611.00 594.72 11.00
1034 58.7100 567.00 574.49 12.00
1035 58.7600 562.00 564.22 12.00
1036 58.8100 563.00 558.00 12.00
1037 58.8600 566.00 553.57 12.00
1038 58.9100 551.00 550.15 12.00
1039 58.9600 555.00 547.39 12.00
1040 59.0100 575.00 545.13 12.00
1041 59.0600 549.00 543.24 12.00
1042 59.1100 580.00 541.65 12.00
1043 59.1600 555.00 549.47 12.00
1044 59.2100 568.00 548.76 12.00
1045 59.2600 553.00 548.24 12.00
1046 59.3100 583.00 547.89 12.00
1047 59.3600 561.00 547.69 12.00
1048 59.4100 559.00 547.62 12.00
1049 59.4600 566.00 547.69 12.00
1050 59.5100 565.00 547.89 12.00
1051 59.5600 554.00 548.21 12.00
1052 59.6100 553.00 548.66 12.00
1053 59.6600 559.00 549.24 12.00
1054 59.7100 547.00 549.96 12.00
1055 59.7600 556.00 550.82 11.00
1056 59.8100 562.00 548.35 11.00
1057 59.8600 536.00 549.70 10.00
1058 59.9100 545.00 551.25 10.00
1059 59.9600 540.00 553.00 10.00
1060 60.0100 541.00 555.01 10.00
1061 60.0600 541.00 557.30 10.00
1062 60.1100 532.00 559.93 10.00
1063 60.1600 537.00 562.97 10.00
1064 60.2100 556.00 566.48 11.00
1065 60.2600 539.00 570.57 10.00
1066 60.3100 562.00 575.37 11.00
1067 60.3600 550.00 581.04 10.00
1068 60.4100 564.00 587.80 11.00
1069 60.4600 580.00 595.95 11.00
1070 60.5100 593.00 604.85 11.00
1071 60.5600 598.00 617.14 11.00
1072 60.6100 606.00 632.53 11.00
1073 60.6600 630.00 652.21 11.00
1074 60.7100 652.00 678.32 11.00
1075 60.7600 713.00 715.73 12.00
1076 60.8100 772.00 777.61 12.00
1077 60.8600 921.00 898.92 14.00
1078 60.9100 1143.00 1159.66 15.00
1079 60.9600 1737.00 1702.81 19.00
1080 61.0100 2766.00 2704.51 24.00
1081 61.0600 4376.00 4247.30 30.00
1082 61.1100 6293.00 6122.98 40.00
1083 61.1600 7894.00 7715.03 44.00
1084 61.2100 8365.00 8199.62 46.00
1085 61.2600 7429.00 7230.88 43.00
1086 61.3100 5635.00 5397.30 38.00
1087 61.3600 3612.00 3566.05 30.00
1088 61.4100 2176.00 2216.09 23.00
1089 61.4600 1285.00 1417.03 18.00
1090 61.5100 967.00 1017.67 16.00
1091 61.5600 792.00 836.06 14.00
1092 61.6100 746.00 750.95 14.00
1093 61.6600 694.00 704.25 13.00
1094 61.7100 666.00 673.62 13.00
1095 61.7600 648.00 651.29 13.00
1096 61.8100 631.00 634.23 13.00
1097 61.8600 629.00 620.90 13.00
1098 61.9100 585.00 610.35 12.00
1099 61.9600 599.00 601.94 12.00
1100 62.0100 570.00 595.20 12.00
1101 62.0600 584.00 589.80 12.00
1102 62.1100 560.00 585.49 12.00
1103 62.1600 569.00 582.11 11.00
1104 62.2100 562.00 579.53 11.00
1105 62.2600 559.00 577.67 11.00
1106 62.3100 550.00 576.46 10.00
1107 62.3600 548.00 575.89 10.00
1108 62.4100 551.00 575.95 10.00
1109 62.4600 561.00 576.69 11.00
1110 62.5100 573.00 578.16 11.00
1111 62.5600 582.00 580.46 11.00
1112 62.6100 563.00 583.77 11.00
1113 62.6600 553.00 588.31 10.00
1114 62.7100 564.00 594.43 11.00
1115 62.7600 609.00 602.66 11.00
1116 62.8100 597.00 613.92 11.00
1117 62.8600 625.00 630.26 11.00
1118 62.9100 670.00 657.14 12.00
1119 62.9600 707.00 709.48 12.00
1120 63.0100 818.00 822.85 13.00
1121 63.0600 1073.00 1063.82 15.00
1122 63.1100 1582.00 1518.62 18.00
1123 63.1600 2321.00 2235.16 22.00
1124 63.2100 3157.00 3124.46 25.00
1125 63.2600 3906.00 3893.90 28.00
1126 63.3100 4120.00 4135.01 29.00
1127 63.3600 3763.00 3661.96 27.00
1128 63.4100 2815.00 2788.56 24.00
1129 63.4600 1915.00 1925.97 20.00
1130 63.5100 1251.00 1298.52 18.00
1131 63.5600 889.00 932.52 15.00
1132 63.6100 733.00 751.89 14.00
1133 63.6600 673.00 670.07 13.00
1134 63.7100 648.00 631.25 13.00
1135 63.7600 617.00 609.43 12.00
1136 63.8100 606.00 594.84 12.00
1137 63.8600 633.00 584.07 13.00
1138 63.9100 581.00 575.76 12.00
1139 63.9600 589.00 569.20 12.00
1140 64.0100 582.00 563.94 12.00
1141 64.0600 582.00 559.65 12.00
1142 64.1100 563.00 556.12 12.00
1143 64.1600 535.00 553.18 12.00
1144 64.2100 540.00 550.71 12.00
1145 64.2600 539.00 548.61 12.00
1146 64.3100 558.00 546.82 12.00
1147 64.3600 568.00 545.28 12.00
1148 64.4100 554.00 543.95 12.00
1149 64.4600 551.00 542.80 12.00
1150 64.5100 559.00 541.78 12.00
1151 64.5600 540.00 540.90 10.00
1152 64.6100 552.00 540.11 10.00
1153 64.6600 540.00 539.42 10.00
1154 64.7100 541.00 541.76 10.00
1155 64.7600 549.00 541.37 10.00
1156 64.8100 534.00 541.05 10.00
1157 64.8600 544.00 540.79 10.00
1158 64.9100 548.00 540.59 10.00
1159 64.9600 540.00 540.45 10.00
1160 65.0100 532.00 540.37 10.00
1161 65.0600 547.00 540.33 10.00
1162 65.1100 536.00 540.35 10.00
1163 65.1600 534.00 540.42 10.00
1164 65.2100 533.00 540.54 10.00
1165 65.2600 537.00 540.72 10.00
1166 65.3100 547.00 540.96 10.00
1167 65.3600 547.00 541.26 10.00
1168 65.4100 520.00 537.56 10.00
1169 65.4600 552.00 538.18 10.00
1170 65.5100 545.00 538.88 10.00
1171 65.5600 544.00 539.65 10.00
1172 65.6100 551.00 540.52 10.00
1173 65.6600 531.00 541.51 10.00
1174 65.7100 549.00 542.64 10.00
1175 65.7600 584.00 543.92 11.00
1176 65.8100 553.00 545.42 10.00
1177 65.8600 567.00 547.16 11.00
1178 65.9100 574.00 549.22 12.00
1179 65.9600 547.00 551.66 12.00
1180 66.0100 570.00 554.61 12.00
1181 66.0600 577.00 558.21 12.00
1182 66.1100 554.00 562.66 12.00
1183 66.1600 567.00 568.28 12.00
1184 66.2100 582.00 575.53 12.00
1185 66.2600 608.00 585.30 12.00
1186 66.3100 626.00 599.74 12.00
1187 66.3600 628.00 624.82 13.00
1188 66.4100 682.00 676.35 13.00
1189 66.4600 791.00 788.64 14.00
1190 66.5100 1005.00 1016.57 16.00
1191 66.5600 1393.00 1411.86 19.00
1192 66.6100 1945.00 1964.30 22.00
1193 66.6600 2511.00 2535.87 25.00
1194 66.7100 2834.00 2867.22 27.00
1195 66.7600 2770.00 2720.67 26.00
1196 66.8100 2300.00 2204.49 24.00
1197 66.8600 1701.00 1614.56 21.00
1198 66.9100 1170.00 1150.59 17.00
1199 66.9600 837.00 864.72 13.00
1200 67.0100 699.00 718.65 12.00
1201 67.0600 646.00 652.19 11.00
1202 67.1100 615.00 621.88 11.00
1203 67.1600 604.00 606.02 11.00
1204 67.2100 590.00 596.20 11.00
1205 67.2600 586.00 589.46 11.00
1206 67.3100 573.00 584.71 11.00
1207 67.3600 582.00 581.39 11.00
1208 67.4100 552.00 579.17 10.00
1209 67.4600 573.00 577.86 11.00
1210 67.5100 564.00 577.30 11.00
1211 67.5600 574.00 577.41 11.00
1212 67.6100 565.00 578.15 11.00
1213 67.6600 559.00 579.50 11.00
1214 67.7100 568.00 581.47 11.00
1215 67.7600 579.00 584.13 11.00
1216 67.8100 581.00 587.53 11.00
1217 67.8600 576.00 591.79 11.00
1218 67.9100 598.00 597.07 11.00
1219 67.9600 608.00 603.60 11.00
1220 68.0100 600.00 611.67 11.00
1221 68.0600 642.00 621.73 11.00
1222 68.1100 624.00 634.34 11.00
1223 68.1600 618.00 650.39 11.00
1224 68.2100 658.00 671.17 11.00
1225 68.2600 672.00 699.01 12.00
1226 68.3100 705.00 739.15 13.00
1227 68.3600 764.00 806.03 14.00
1228 68.4100 936.00 939.09 15.00
1229 68.4600 1222.00 1229.22 17.00
1230 68.5100 1799.00 1834.30 21.00
1231 68.5600 2974.00 2927.66 27.00
1232 68.6100 4613.00 4536.06 34.00
1233 68.6600 6302.00 6327.02 40.00
1234 68.7100 7614.00 7524.67 44.00
1235 68.7600 7483.00 7338.03 43.00
1236 68.8100 6225.00 5885.49 39.00
1237 68.8600 4316.00 4068.04 33.00
1238 68.9100 2644.00 2572.00 26.00
1239 68.9600 1553.00 1618.51 20.00
1240 69.0100 1042.00 1117.99 16.00
1241 69.0600 854.00 886.04 15.00
1242 69.1100 796.00 779.22 14.00
1243 69.1600 758.00 722.91 14.00
1244 69.2100 707.00 687.19 13.00
1245 69.2600 684.00 661.56 13.00
1246 69.3100 660.00 642.09 13.00
1247 69.3600 639.00 626.88 11.00
1248 69.4100 636.00 614.76 11.00
1249 69.4600 627.00 604.98 11.00
1250 69.5100 617.00 596.97 11.00
1251 69.5600 590.00 590.34 11.00
1252 69.6100 609.00 584.79 11.00
1253 69.6600 600.00 580.10 11.00
1254 69.7100 606.00 576.12 11.00
1255 69.7600 599.00 572.71 11.00
1256 69.8100 571.00 569.76 11.00
1257 69.8600 569.00 567.21 11.00
1258 69.9100 564.00 564.98 11.00
1259 69.9600 572.00 563.03 11.00
1260 70.0100 567.00 572.49 11.00
1261 70.0600 575.00 571.54 11.00
1262 70.1100 539.00 570.82 10.00
1263 70.1600 558.00 570.30 11.00
1264 70.2100 568.00 569.96 11.00
1265 70.2600 559.00 569.80 11.00
1266 70.3100 562.00 569.81 11.00
1267 70.3600 566.00 569.98 11.00
1268 70.4100 577.00 570.32 11.00
1269 70.4600 569.00 570.83 11.00
1270 70.5100 573.00 571.51 11.00
1271 70.5600 597.00 572.38 11.00
1272 70.6100 569.00 573.44 11.00
1273 70.6600 580.00 574.71 11.00
1274 70.7100 587.00 576.22 12.00
1275 70.7600 572.00 577.99 12.00
1276 70.8100 580.00 571.54 12.00
1277 70.8600 590.00 574.33 12.00
1278 70.9100 608.00 577.49 12.00
1279 70.9600 590.00 581.09 12.00
1280 71.0100 582.00 585.20 12.00
1281 71.0600 612.00 589.94 12.00
1282 71.1100 624.00 595.44 12.00
1283 71.1600 632.00 601.89 13.00
1284 71.2100 635.00 609.51 13.00
1285 71.2600 644.00 618.60 13.00
1286 71.3100 658.00 629.59 13.00
1287 71.3600 680.00 643.03 13.00
1288 71.4100 692.00 659.72 13.00
1289 71.4600 720.00 680.77 13.00
1290 71.5100 726.00 707.95 13.00
1291 71.5600 783.00 744.43 14.00
1292 71.6100 832.00 797.64 14.00
1293 71.6600 915.00 888.20 15.00
1294 71.7100 1042.00 1071.26 16.00
1295 71.7600 1421.00 1468.66 17.00
1296 71.8100 2153.00 2278.24 21.00
1297 71.8600 3492.00 3689.65 26.00
1298 71.9100 5394.00 5675.48 33.00
1299 71.9600 7269.00 7739.28 38.00
1300 72.0100 8333.00 8881.69 41.00
1301 72.0600 7967.00 8286.57 40.00
1302 72.1100 6491.00 6392.37 36.00
1303 72.1600 4394.00 4289.57 30.00
1304 72.2100 2700.00 2664.14 23.00
1305 72.2600 1604.00 1672.93 18.00
1306 72.3100 1157.00 1167.69 15.00
1307 72.3600 949.00 934.85 14.00
1308 72.4100 862.00 824.54 13.00
1309 72.4600 807.00 763.54 13.00
1310 72.5100 755.00 723.43 12.00
1311 72.5600 747.00 694.28 12.00
1312 72.6100 701.00 671.97 12.00
1313 72.6600 692.00 654.51 12.00
1314 72.7100 676.00 640.65 12.00
1315 72.7600 647.00 629.48 11.00
1316 72.8100 652.00 620.41 11.00
1317 72.8600 627.00 612.97 11.00
1318 72.9100 619.00 606.85 11.00
1319 72.9600 618.00 601.80 11.00
1320 73.0100 613.00 597.64 11.00
1321 73.0600 612.00 594.23 11.00
1322 73.1100 581.00 591.49 12.00
1323 73.1600 605.00 589.34 12.00
1324 73.2100 590.00 587.76 12.00
1325 73.2600 593.00 586.71 12.00
1326 73.3100 600.00 586.24 12.00
1327 73.3600 593.00 586.38 12.00
1328 73.4100 582.00 587.25 12.00
1329 73.4600 608.00 589.02 12.00
1330 73.5100 585.00 592.06 12.00
1331 73.5600 601.00 597.30 12.00
1332 73.6100 592.00 607.36 12.00
1333 73.6600 633.00 629.08 13.00
1334 73.7100 663.00 676.99 13.00
1335 73.7600 753.00 773.43 14.00
1336 73.8100 920.00 937.55 15.00
1337 73.8600 1141.00 1161.09 17.00
1338 73.9100 1322.00 1382.87 18.00
1339 73.9600 1484.00 1488.60 19.00
1340 74.0100 1379.00 1400.17 19.00
1341 74.0600 1219.00 1182.55 17.00
1342 74.1100 1016.00 943.91 16.00
1343 74.1600 794.00 772.75 13.00
1344 74.2100 681.00 670.53 12.00
1345 74.2600 629.00 619.50 11.00
1346 74.3100 601.00 597.27 11.00
1347 74.3600 587.00 589.45 11.00
1348 74.4100 598.00 590.17 11.00
1349 74.4600 604.00 597.71 11.00
1350 74.5100 600.00 610.13 11.00
1351 74.5600 625.00 622.33 11.00
1352 74.6100 634.00 626.17 11.00
1353 74.6600 600.00 617.23 11.00
1354 74.7100 593.00 600.87 11.00
1355 74.7600 602.00 584.79 11.00
1356 74.8100 579.00 572.99 11.00
1357 74.8600 560.00 565.91 11.00
1358 74.9100 584.00 562.19 11.00
1359 74.9600 578.00 560.30 11.00
1360 75.0100 546.00 559.25 10.00
1361 75.0600 563.00 560.62 11.00
1362 75.1100 542.00 560.24 10.00
1363 75.1600 559.00 559.97 11.00
1364 75.2100 542.00 559.80 10.00
1365 75.2600 550.00 559.71 10.00
1366 75.3100 552.00 559.68 10.00
1367 75.3600 540.00 559.70 10.00
1368 75.4100 549.00 559.77 10.00
1369 75.4600 547.00 559.88 10.00
1370 75.5100 565.00 560.04 12.00
1371 75.5600 534.00 560.23 12.00
1372 75.6100 534.00 560.46 12.00
1373 75.6600 542.00 560.73 12.00
1374 75.7100 571.00 561.04 12.00
1375 75.7600 564.00 561.39 12.00
1376 75.8100 557.00 561.79 12.00
1377 75.8600 565.00 562.23 12.00
1378 75.9100 547.00 562.73 12.00
1379 75.9600 545.00 563.29 12.00
1380 76.0100 560.00 563.92 12.00
1381 76.0600 581.00 563.47 12.00
1382 76.1100 563.00 564.33 12.00
1383 76.1600 554.00 565.29 12.00
1384 76.2100 562.00 566.39 12.00
1385 76.2600 584.00 567.64 12.00
1386 76.3100 567.00 569.09 12.00
1387 76.3600 578.00 570.78 12.00
1388 76.4100 576.00 572.77 12.00
1389 76.4600 565.00 575.15 12.00
1390 76.5100 578.00 578.04 12.00
1391 76.5600 595.00 581.60 11.00
1392 76.6100 577.00 586.06 11.00
1393 76.6600 588.00 591.81 11.00
1394 76.7100 599.00 599.47 11.00
1395 76.7600 626.00 610.97 11.00
1396 76.8100 629.00 631.01 11.00
1397 76.8600 658.00 671.72 11.00
1398 76.9100 751.00 757.79 12.00
1399 76.9600 913.00 934.83 13.00
1400 77.0100 1200.00 1213.47 15.00
1401 77.0600 1577.00 1586.19 18.00
1402 77.1100 1923.00 1951.76 20.00
1403 77.1600 2093.00 2124.56 20.00
1404 77.2100 1965.00 1979.12 20.00
1405 77.2600 1623.00 1622.82 18.00
1406 77.3100 1248.00 1246.39 16.00
1407 77.3600 936.00 959.58 14.00
1408 77.4100 749.00 784.58 12.00
1409 77.4600 654.00 694.57 11.00
1410 77.5100 621.00 652.71 11.00
1411 77.5600 621.00 633.48 11.00
1412 77.6100 613.00 623.18 11.00
1413 77.6600 620.00 616.98 11.00
1414 77.7100 595.00 613.03 11.00
1415 77.7600 606.00 610.57 11.00
1416 77.8100 613.00 609.26 11.00
1417 77.8600 587.00 608.88 11.00
1418 77.9100 595.00 609.31 12.00
1419 77.9600 609.00 610.47 12.00
1420 78.0100 610.00 612.36 12.00
1421 78.0600 581.00 614.98 12.00
1422 78.1100 604.00 618.39 12.00
1423 78.1600 614.00 622.68 12.00
1424 78.2100 627.00 627.99 12.00
1425 78.2600 636.00 634.52 13.00
1426 78.3100 642.00 642.52 13.00
1427 78.3600 635.00 652.39 13.00
1428 78.4100 621.00 664.64 12.00
1429 78.4600 661.00 679.99 13.00
1430 78.5100 673.00 699.54 13.00
1431 78.5600 716.00 725.02 13.00
1432 78.6100 742.00 759.84 14.00
1433 78.6600 763.00 812.53 14.00
1434 78.7100 857.00 905.94 15.00
1435 78.7600 1037.00 1096.14 16.00
1436 78.8100 1446.00 1493.08 19.00
1437 78.8600 2152.00 2251.45 23.00
1438 78.9100 3397.00 3486.53 29.00
1439 78.9600 4927.00 5114.05 31.00
1440 79.0100 6622.00 6693.23 36.00
1441 79.0600 7332.00 7430.39 38.00
1442 79.1100 6978.00 6797.01 37.00
1443 79.1600 5558.00 5252.35 33.00
1444 79.2100 3816.00 3607.36 28.00
1445 79.2600 2416.00 2335.87 22.00
1446 79.3100 1486.00 1543.63 17.00
1447 79.3600 1062.00 1130.02 15.00
1448 79.4100 917.00 939.57 14.00
1449 79.4600 845.00 863.02 13.00
1450 79.5100 862.00 846.90 13.00
1451 79.5600 872.00 868.74 13.00
1452 79.6100 925.00 910.84 14.00
1453 79.6600 955.00 945.42 14.00
1454 79.7100 956.00 938.29 14.00
1455 79.7600 905.00 881.90 13.00
1456 79.8100 821.00 804.40 13.00
1457 79.8600 734.00 733.87 12.00
1458 79.9100 677.00 682.78 12.00
1459 79.9600 652.00 651.15 11.00
1460 80.0100 640.00 649.83 11.00
1461 80.0600 616.00 640.15 11.00
1462 80.1100 642.00 634.21 11.00
1463 80.1600 613.00 630.12 11.00
1464 80.2100 615.00 627.11 11.00
1465 80.2600 598.00 624.84 11.00
1466 80.3100 625.00 623.16 12.00
1467 80.3600 617.00 621.97 12.00
1468 80.4100 592.00 621.22 12.00
1469 80.4600 595.00 620.86 12.00
1470 80.5100 596.00 620.84 12.00
1471 80.5600 595.00 621.17 12.00
1472 80.6100 633.00 621.82 13.00
1473 80.6600 611.00 622.79 12.00
1474 80.7100 592.00 624.10 12.00
1475 80.7600 582.00 625.74 12.00
1476 80.8100 603.00 627.75 12.00
1477 80.8600 605.00 630.16 12.00
1478 80.9100 623.00 632.99 12.00
1479 80.9600 620.00 636.31 12.00
1480 81.0100 614.00 640.17 12.00
1481 81.0600 634.00 644.66 13.00
1482 81.1100 649.00 649.87 13.00
1483 81.1600 670.00 655.93 13.00
1484 81.2100 668.00 662.99 13.00
1485 81.2600 665.00 662.66 13.00
1486 81.3100 662.00 672.78 13.00
1487 81.3600 698.00 684.66 12.00
1488 81.4100 719.00 698.75 12.00
1489 81.4600 708.00 715.62 12.00
1490 81.5100 735.00 736.08 12.00
1491 81.5600 757.00 761.18 12.00
1492 81.6100 779.00 792.44 12.00
1493 81.6600 837.00 832.17 13.00
1494 81.7100 906.00 884.34 13.00
1495 81.7600 972.00 957.71 14.00
1496 81.8100 1050.00 1077.57 14.00
1497 81.8600 1279.00 1295.51 16.00
1498 81.9100 1717.00 1739.58 19.00
1499 81.9600 2589.00 2625.74 23.00
1500 82.0100 4317.00 4207.48 29.00
1501 82.0600 6741.00 6599.14 37.00
1502 82.1100 9622.00 9516.74 44.00
1503 82.1600 11780.00 12068.80 49.00
1504 82.2100 12473.00 12904.80 50.00
1505 82.2600 11204.00 11432.50 47.00
1506 82.3100 8682.00 8640.19 42.00
1507 82.3600 5806.00 5815.44 34.00
1508 82.4100 3537.00 3657.84 27.00
1509 82.4600 2114.00 2305.93 21.00
1510 82.5100 1500.00 1578.32 17.00
1511 82.5600 1209.00 1220.42 16.00
1512 82.6100 1048.00 1042.64 14.00
1513 82.6600 971.00 943.25 14.00
1514 82.7100 927.00 878.51 15.00
1515 82.7600 900.00 831.55 15.00
1516 82.8100 832.00 795.65 14.00
1517 82.8600 802.00 767.49 14.00
1518 82.9100 785.00 745.09 14.00
1519 82.9600 806.00 727.09 14.00
1520 83.0100 749.00 712.54 14.00
1521 83.0600 762.00 700.75 14.00
1522 83.1100 730.00 691.23 13.00
1523 83.1600 713.00 683.60 13.00
1524 83.2100 702.00 677.62 13.00
1525 83.2600 710.00 673.12 13.00
1526 83.3100 678.00 669.99 13.00
1527 83.3600 678.00 668.21 13.00
1528 83.4100 690.00 667.83 13.00
1529 83.4600 674.00 668.98 13.00
1530 83.5100 658.00 671.93 13.00
1531 83.5600 692.00 677.19 13.00
1532 83.6100 694.00 685.89 13.00
1533 83.6600 686.00 700.90 13.00
1534 83.7100 741.00 729.58 14.00
1535 83.7600 790.00 788.62 13.00
1536 83.8100 879.00 908.56 13.00
1537 83.8600 1115.00 1130.26 15.00
1538 83.9100 1462.00 1484.04 17.00
1539 83.9600 1924.00 1952.14 20.00
1540 84.0100 2371.00 2431.72 22.00
1541 84.0600 2593.00 2723.74 23.00
1542 84.1100 2600.00 2646.00 23.00
1543 84.1600 2324.00 2252.31 22.00
1544 84.2100 1812.00 1758.78 19.00
1545 84.2600 1360.00 1329.93 16.00
1546 84.3100 1009.00 1032.49 14.00
1547 84.3600 845.00 862.70 13.00
1548 84.4100 778.00 786.89 12.00
1549 84.4600 782.00 758.32 12.00
1550 84.5100 814.00 791.56 13.00
1551 84.5600 887.00 859.11 13.00
1552 84.6100 965.00 943.94 14.00
1553 84.6600 1008.00 1013.87 14.00
1554 84.7100 1016.00 1027.19 14.00
1555 84.7600 998.00 970.51 14.00
1556 84.8100 875.00 876.23 13.00
1557 84.8600 796.00 782.39 13.00
1558 84.9100 708.00 709.75 12.00
1559 84.9600 662.00 662.74 11.00
1560 85.0100 633.00 636.10 11.00
1561 85.0600 595.00 622.04 11.00
1562 85.1100 620.00 614.45 12.00
1563 85.1600 610.00 609.87 12.00
1564 85.2100 591.00 606.69 12.00
1565 85.2600 597.00 604.28 12.00
1566 85.3100 602.00 602.35 12.00
1567 85.3600 609.00 600.78 12.00
1568 85.4100 590.00 599.48 12.00
1569 85.4600 594.00 598.39 12.00
1570 85.5100 583.00 597.47 12.00
1571 85.5600 619.00 596.70 12.00
1572 85.6100 566.00 596.03 12.00
1573 85.6600 596.00 595.47 12.00
1574 85.7100 610.00 594.98 12.00
1575 85.7600 593.00 594.57 12.00
1576 85.8100 572.00 594.21 12.00
1577 85.8600 589.00 593.90 12.00
1578 85.9100 586.00 593.64 12.00
1579 85.9600 587.00 593.42 12.00
1580 86.0100 610.00 593.23 12.00
1581 86.0600 596.00 593.08 12.00
1582 86.1100 578.00 592.96 12.00
1583 86.1600 590.00 592.86 11.00
1584 86.2100 576.00 592.78 11.00
1585 86.2600 586.00 592.73 11.00
1586 86.3100 593.00 592.71 11.00
1587 86.3600 591.00 592.70 11.00
1588 86.4100 583.00 590.06 11.00
1589 86.4600 575.00 590.22 11.00
1590 86.5100 577.00 590.40 11.00
1591 86.5600 570.00 600.32 11.00
1592 86.6100 606.00 600.97 11.00
1593 86.6600 596.00 601.70 11.00
1594 86.7100 577.00 602.54 11.00
1595 86.7600 601.00 603.58 11.00
1596 86.8100 607.00 605.03 11.00
1597 86.8600 589.00 607.31 11.00
1598 86.9100 602.00 611.15 11.00
1599 86.9600 606.00 617.45 11.00
1600 87.0100 631.00 626.82 11.00
1601 87.0600 607.00 638.34 11.00
1602 87.1100 641.00 650.84 11.00
1603 87.1600 628.00 659.59 11.00
1604 87.2100 643.00 660.26 11.00
1605 87.2600 655.00 653.09 11.00
1606 87.3100 649.00 642.59 11.00
1607 87.3600 615.00 632.85 11.00
1608 87.4100 613.00 625.91 11.00
1609 87.4600 616.00 622.10 11.00
1610 87.5100 604.00 620.78 12.00
1611 87.5600 645.00 621.05 13.00
1612 87.6100 623.00 622.26 12.00
1613 87.6600 644.00 624.01 13.00
1614 87.7100 629.00 626.17 13.00
1615 87.7600 617.00 628.67 12.00
1616 87.8100 626.00 631.55 12.00
1617 87.8600 631.00 634.83 13.00
1618 87.9100 642.00 638.56 13.00
1619 87.9600 645.00 642.83 13.00
1620 88.0100 664.00 647.73 13.00
1621 88.0600 663.00 653.38 13.00
1622 88.1100 686.00 659.93 13.00
1623 88.1600 692.00 667.57 13.00
1624 88.2100 731.00 676.57 13.00
1625 88.2600 726.00 687.25 13.00
1626 88.3100 719.00 700.06 13.00
1627 88.3600 749.00 715.58 14.00
1628 88.4100 782.00 734.68 14.00
1629 88.4600 782.00 758.62 14.00
1630 88.5100 816.00 789.78 14.00
1631 88.5600 863.00 833.23 13.00
1632 88.6100 901.00 901.16 13.00
1633 88.6600 1027.00 1021.74 14.00
1634 88.7100 1249.00 1251.86 16.00
1635 88.7600 1646.00 1685.71 18.00
1636 88.8100 2410.00 2440.01 22.00
1637 88.8600 3592.00 3597.14 27.00
1638 88.9100 5145.00 5114.44 32.00
1639 88.9600 6669.00 6733.38 37.00
1640 89.0100 7684.00 7939.03 39.00
1641 89.0600 7993.00 8133.15 40.00
1642 89.1100 7337.00 7198.02 38.00
1643 89.1600 5807.00 5644.53 34.00
1644 89.2100 4244.00 4054.32 29.00
1645 89.2600 2749.00 2767.81 23.00
1646 89.3100 1796.00 1888.93 19.00
1647 89.3600 1297.00 1364.79 16.00
1648 89.4100 1078.00 1081.23 15.00
1649 89.4600 949.00 933.51 14.00
1650 89.5100 890.00 875.06 13.00
1651 89.5600 846.00 826.61 13.00
1652 89.6100 833.00 793.27 13.00
1653 89.6600 814.00 768.45 13.00
1654 89.7100 764.00 749.14 12.00
1655 89.7600 767.00 733.81 12.00
1656 89.8100 735.00 721.51 12.00
1657 89.8600 725.00 711.57 12.00
1658 89.9100 718.00 703.53 13.00
1659 89.9600 737.00 697.02 14.00
1660 90.0100 686.00 691.77 13.00
1661 90.0600 710.00 687.59 13.00
1662 90.1100 683.00 684.31 13.00
1663 90.1600 707.00 681.81 13.00
1664 90.2100 702.00 680.00 13.00
1665 90.2600 688.00 678.81 13.00
1666 90.3100 665.00 678.19 13.00
1667 90.3600 692.00 678.10 13.00
1668 90.4100 682.00 678.52 13.00
1669 90.4600 684.00 679.44 13.00
1670 90.5100 691.00 680.85 13.00
1671 90.5600 664.00 682.76 13.00
1672 90.6100 690.00 685.19 13.00
1673 90.6600 724.00 688.17 13.00
1674 90.7100 676.00 691.73 13.00
1675 90.7600 706.00 695.94 13.00
1676 90.8100 703.00 700.85 13.00
1677 90.8600 699.00 706.54 13.00
1678 90.9100 744.00 713.12 14.00
1679 90.9600 721.00 720.72 12.00
1680 91.0100 738.00 729.49 12.00
1681 91.0600 727.00 739.64 12.00
1682 91.1100 747.00 751.40 12.00
1683 91.1600 766.00 765.08 12.00
1684 91.2100 812.00 781.06 13.00
1685 91.2600 804.00 801.24 13.00
1686 91.3100 831.00 823.53 13.00
1687 91.3600 864.00 850.09 13.00
1688 91.4100 876.00 882.06 13.00
1689 91.4600 903.00 920.95 13.00
1690 91.5100 976.00 969.05 14.00
1691 91.5600 1060.00 1020.72 15.00
1692 91.6100 1083.00 1102.95 15.00
1693 91.6600 1246.00 1223.39 16.00
1694 91.7100 1419.00 1421.55 17.00
1695 91.7600 1738.00 1779.46 19.00
1696 91.8100 2386.00 2443.00 22.00
1697 91.8600 3660.00 3622.11 27.00
1698 91.9100 5832.00 5537.36 34.00
1699 91.9600 8859.00 8292.27 42.00
1700 92.0100 12368.00 11711.40 50.00
1701 92.0600 15652.00 15195.20 56.00
1702 92.1100 17737.00 17685.50 60.00
1703 92.1600 17961.00 18049.30 60.00
1704 92.2100 16347.00 16087.40 57.00
1705 92.2600 13165.00 12769.40 51.00
1706 92.3100 9554.00 9248.00 49.00
1707 92.3600 6336.00 6262.95 40.00
1708 92.4100 3866.00 4102.47 31.00
1709 92.4600 2476.00 2728.09 25.00
1710 92.5100 1810.00 1937.29 21.00
1711 92.5600 1452.00 1508.39 19.00
1712 92.6100 1310.00 1274.76 18.00
1713 92.6600 1180.00 1137.53 17.00
1714 92.7100 1140.00 1047.11 17.00
1715 92.7600 1058.00 981.19 16.00
1716 92.8100 1033.00 930.04 16.00
1717 92.8600 994.00 889.04 16.00
1718 92.9100 920.00 855.58 15.00
1719 92.9600 894.00 827.98 15.00
1720 93.0100 874.00 805.04 15.00
1721 93.0600 885.00 785.89 15.00
1722 93.1100 846.00 769.84 15.00
1723 93.1600 830.00 756.41 14.00
1724 93.2100 804.00 745.24 14.00
1725 93.2600 781.00 736.05 14.00
1726 93.3100 782.00 728.68 14.00
1727 93.3600 775.00 723.06 12.00
1728 93.4100 755.00 719.27 12.00
1729 93.4600 749.00 717.70 12.00
1730 93.5100 765.00 719.39 12.00
1731 93.5600 757.00 726.81 12.00
1732 93.6100 780.00 744.92 12.00
1733 93.6600 808.00 782.34 13.00
1734 93.7100 863.00 851.13 13.00
1735 93.7600 1007.00 963.81 14.00
1736 93.8100 1173.00 1126.62 15.00
1737 93.8600 1356.00 1330.70 16.00
1738 93.9100 1583.00 1544.75 18.00
1739 93.9600 1740.00 1711.84 19.00
1740 94.0100 1774.00 1764.58 19.00
1741 94.0600 1690.00 1675.28 18.00
1742 94.1100 1502.00 1486.15 17.00
1743 94.1600 1305.00 1265.40 16.00
1744 94.2100 1098.00 1065.40 15.00
1745 94.2600 895.00 909.13 13.00
1746 94.3100 801.00 802.32 13.00
1747 94.3600 729.00 736.46 12.00
1748 94.4100 712.00 698.59 12.00
1749 94.4600 681.00 677.25 12.00
1750 94.5100 656.00 664.66 11.00
1751 94.5600 668.00 656.46 12.00
1752 94.6100 637.00 650.50 11.00
1753 94.6600 658.00 645.82 11.00
1754 94.7100 641.00 641.96 13.00
1755 94.7600 662.00 638.71 13.00
1756 94.8100 662.00 614.39 13.00
1757 94.8600 612.00 612.76 12.00
1758 94.9100 622.00 611.39 12.00
1759 94.9600 639.00 610.24 13.00
1760 95.0100 620.00 609.26 12.00
1761 95.0600 627.00 608.42 12.00
1762 95.1100 618.00 607.72 12.00
1763 95.1600 621.00 607.11 12.00
1764 95.2100 629.00 606.60 13.00
1765 95.2600 615.00 606.17 12.00
1766 95.3100 614.00 605.81 12.00
1767 95.3600 608.00 605.52 12.00
1768 95.4100 608.00 605.28 12.00
1769 95.4600 612.00 605.10 12.00
1770 95.5100 637.00 604.97 13.00
1771 95.5600 622.00 604.90 12.00
1772 95.6100 599.00 604.88 12.00
1773 95.6600 630.00 604.91 13.00
1774 95.7100 606.00 604.99 12.00
1775 95.7600 597.00 605.13 11.00
1776 95.8100 611.00 605.33 11.00
1777 95.8600 599.00 605.60 11.00
1778 95.9100 612.00 617.02 11.00
1779 95.9600 603.00 617.81 11.00
1780 96.0100 612.00 618.71 11.00
1781 96.0600 612.00 619.74 11.00
1782 96.1100 610.00 620.92 11.00
1783 96.1600 622.00 622.27 11.00
1784 96.2100 627.00 623.83 11.00
1785 96.2600 632.00 625.63 11.00
1786 96.3100 610.00 627.73 11.00
1787 96.3600 621.00 630.20 11.00
1788 96.4100 631.00 633.14 11.00
1789 96.4600 631.00 636.70 11.00
1790 96.5100 624.00 641.28 11.00
1791 96.5600 641.00 647.36 11.00
1792 96.6100 654.00 656.38 11.00
1793 96.6600 656.00 671.01 11.00
1794 96.7100 688.00 696.16 12.00
1795 96.7600 733.00 738.06 12.00
1796 96.8100 801.00 809.30 13.00
1797 96.8600 910.00 917.73 13.00
1798 96.9100 1087.00 1067.25 15.00
1799 96.9600 1251.00 1250.30 16.00
1800 97.0100 1463.00 1443.22 17.00
1801 97.0600 1570.00 1604.00 18.00
1802 97.1100 1636.00 1680.40 20.00
1803 97.1600 1562.00 1640.55 20.00
1804 97.2100 1512.00 1502.74 19.00
1805 97.2600 1319.00 1317.33 18.00
1806 97.3100 1146.00 1131.08 17.00
1807 97.3600 978.00 973.23 16.00
1808 97.4100 840.00 855.77 14.00
1809 97.4600 749.00 777.69 14.00
1810 97.5100 720.00 730.75 13.00
1811 97.5600 685.00 704.98 13.00
1812 97.6100 678.00 692.02 13.00
1813 97.6600 696.00 686.24 13.00
1814 97.7100 705.00 684.43 13.00
1815 97.7600 704.00 685.01 13.00
1816 97.8100 686.00 687.27 13.00
1817 97.8600 694.00 690.92 13.00
1818 97.9100 723.00 695.93 13.00
1819 97.9600 717.00 702.33 13.00
1820 98.0100 715.00 710.25 13.00
1821 98.0600 739.00 719.90 14.00
1822 98.1100 755.00 731.55 14.00
1823 98.1600 766.00 745.59 14.00
1824 98.2100 759.00 762.56 12.00
1825 98.2600 808.00 783.26 13.00
1826 98.3100 807.00 808.99 13.00
1827 98.3600 884.00 842.22 13.00
1828 98.4100 888.00 887.94 13.00
1829 98.4600 948.00 956.48 14.00
1830 98.5100 1053.00 1068.13 14.00
1831 98.5600 1214.00 1259.06 16.00
1832 98.6100 1522.00 1586.00 17.00
1833 98.6600 2044.00 2124.03 20.00
1834 98.7100 2917.00 2950.42 24.00
1835 98.7600 4188.00 4112.97 29.00
1836 98.8100 5785.00 5586.64 34.00
1837 98.8600 7403.00 7234.13 38.00
1838 98.9100 8716.00 8784.25 42.00
1839 98.9600 9608.00 9844.94 44.00
1840 99.0100 9812.00 10044.80 44.00
1841 99.0600 9212.00 9302.17 43.00
1842 99.1100 7981.00 7901.77 40.00
1843 99.1600 6421.00 6253.79 36.00
1844 99.2100 4747.00 4686.26 31.00
1845 99.2600 3288.00 3389.43 26.00
1846 99.3100 2273.00 2430.97 21.00
1847 99.3600 1625.00 1788.21 18.00
1848 99.4100 1285.00 1391.13 16.00
1849 99.4600 1102.00 1160.60 15.00
1850 99.5100 1007.00 1030.35 16.00
1851 99.5600 982.00 954.23 16.00
1852 99.6100 904.00 903.94 15.00
1853 99.6600 878.00 864.23 15.00
1854 99.7100 866.00 828.84 15.00
1855 99.7600 858.00 796.52 15.00
1856 99.8100 809.00 767.71 14.00
1857 99.8600 805.00 742.94 14.00
1858 99.9100 728.00 722.32 13.00
1859 99.9600 731.00 705.55 13.00
1860 100.0100 726.00 692.03 13.00
1861 100.0600 677.00 681.05 13.00
1862 100.1100 677.00 670.75 13.00
1863 100.1600 673.00 663.13 13.00
1864 100.2100 667.00 656.55 13.00
1865 100.2600 666.00 650.78 13.00
1866 100.3100 654.00 645.67 13.00
1867 100.3600 673.00 641.10 13.00
1868 100.4100 633.00 636.98 13.00
1869 100.4600 633.00 633.26 13.00
1870 100.5100 642.00 629.88 13.00
1871 100.5600 615.00 628.93 11.00
1872 100.6100 638.00 626.17 11.00
1873 100.6600 628.00 623.64 11.00
1874 100.7100 627.00 621.33 11.00
1875 100.7600 629.00 619.19 11.00
1876 100.8100 605.00 617.23 11.00
1877 100.8600 591.00 615.41 11.00
1878 100.9100 609.00 613.72 11.00
1879 100.9600 607.00 612.15 11.00
1880 101.0100 588.00 610.70 11.00
1881 101.0600 600.00 609.34 11.00
1882 101.1100 587.00 608.07 11.00
1883 101.1600 597.00 607.10 11.00
1884 101.2100 565.00 606.00 11.00
1885 101.2600 575.00 604.97 11.00
1886 101.3100 582.00 604.00 11.00
1887 101.3600 601.00 603.10 11.00
1888 101.4100 600.00 602.25 11.00
1889 101.4600 588.00 601.46 11.00
1890 101.5100 593.00 600.72 11.00
1891 101.5600 589.00 600.02 11.00
1892 101.6100 584.00 599.38 11.00
1893 101.6600 574.00 598.77 11.00
1894 101.7100 577.00 598.21 11.00
1895 101.7600 580.00 597.69 11.00
1896 101.8100 579.00 597.21 11.00
1897 101.8600 579.00 596.77 11.00
1898 101.9100 576.00 596.36 12.00
1899 101.9600 586.00 596.00 12.00
1900 102.0100 565.00 595.68 12.00
1901 102.0600 573.00 595.40 12.00
1902 102.1100 576.00 584.28 12.00
1903 102.1600 590.00 584.42 12.00
1904 102.2100 577.00 584.59 12.00
1905 102.2600 570.00 584.79 12.00
1906 102.3100 585.00 585.03 12.00
1907 102.3600 564.00 585.32 12.00
1908 102.4100 570.00 585.64 12.00
1909 102.4600 566.00 586.02 12.00
1910 102.5100 580.00 586.45 12.00
1911 102.5600 568.00 586.95 12.00
1912 102.6100 548.00 587.52 12.00
1913 102.6600 558.00 588.18 12.00
1914 102.7100 582.00 588.93 12.00
1915 102.7600 595.00 589.74 12.00
1916 102.8100 569.00 590.73 12.00
1917 102.8600 608.00 591.88 12.00
1918 102.9100 577.00 593.20 12.00
1919 102.9600 579.00 594.72 11.00
1920 103.0100 578.00 596.49 11.00
1921 103.0600 589.00 598.54 11.00
1922 103.1100 593.00 600.95 11.00
1923 103.1600 577.00 603.78 11.00
1924 103.2100 588.00 607.13 11.00
1925 103.2600 588.00 611.18 11.00
1926 103.3100 589.00 616.21 11.00
1927 103.3600 622.00 622.70 11.00
1928 103.4100 613.00 631.66 11.00
1929 103.4600 644.00 644.92 11.00
1930 103.5100 649.00 666.01 11.00
1931 103.5600 679.00 699.91 12.00
1932 103.6100 733.00 754.84 12.00
1933 103.6600 818.00 841.25 13.00
1934 103.7100 931.00 970.35 14.00
1935 103.7600 1163.00 1151.03 15.00
1936 103.8100 1392.00 1385.26 17.00
1937 103.8600 1704.00 1663.34 18.00
1938 103.9100 2014.00 1960.36 20.00
1939 103.9600 2232.00 2234.62 21.00
1940 104.0100 2372.00 2430.96 22.00
1941 104.0600 2420.00 2496.69 22.00
1942 104.1100 2334.00 2411.61 22.00
1943 104.1600 2194.00 2203.13 21.00
1944 104.2100 1953.00 1926.61 20.00
1945 104.2600 1668.00 1636.51 18.00
1946 104.3100 1377.00 1373.28 19.00
1947 104.3600 1113.00 1160.56 17.00
1948 104.4100 961.00 1006.73 15.00
1949 104.4600 861.00 908.46 15.00
1950 104.5100 799.00 854.96 14.00
1951 104.5600 809.00 832.20 14.00
1952 104.6100 827.00 825.69 14.00
1953 104.6600 800.00 822.44 14.00
1954 104.7100 813.00 812.81 14.00
1955 104.7600 792.00 792.76 14.00
1956 104.8100 767.00 763.87 14.00
1957 104.8600 740.00 730.60 14.00
1958 104.9100 703.00 697.37 13.00
1959 104.9600 653.00 667.46 13.00
1960 105.0100 626.00 642.64 12.00
1961 105.0600 593.00 623.43 12.00
1962 105.1100 576.00 609.36 12.00
1963 105.1600 567.00 599.45 12.00
1964 105.2100 581.00 592.59 12.00
1965 105.2600 575.00 588.25 12.00
1966 105.3100 584.00 584.78 12.00
1967 105.3600 584.00 582.14 11.00
1968 105.4100 585.00 580.01 11.00
1969 105.4600 581.00 578.21 11.00
1970 105.5100 572.00 576.64 11.00
1971 105.5600 570.00 575.24 11.00
1972 105.6100 566.00 573.99 11.00
1973 105.6600 552.00 572.85 10.00
1974 105.7100 561.00 571.82 11.00
1975 105.7600 555.00 570.88 11.00
1976 105.8100 566.00 570.02 11.00
1977 105.8600 569.00 569.23 11.00
1978 105.9100 564.00 568.51 11.00
1979 105.9600 556.00 567.84 11.00
1980 106.0100 561.00 567.24 11.00
1981 106.0600 562.00 566.68 11.00
1982 106.1100 563.00 566.19 11.00
1983 106.1600 564.00 565.75 11.00
1984 106.2100 561.00 565.36 11.00
1985 106.2600 563.00 565.03 11.00
1986 106.3100 567.00 564.76 11.00
1987 106.3600 547.00 564.56 10.00
1988 106.4100 556.00 564.44 11.00
1989 106.4600 543.00 564.42 10.00
1990 106.5100 541.00 564.55 10.00
1991 106.5600 560.00 564.89 11.00
1992 106.6100 559.00 565.58 11.00
1993 106.6600 547.00 566.85 10.00
1994 106.7100 560.00 569.10 12.00
1995 106.7600 573.00 572.88 12.00
1996 106.8100 571.00 578.98 12.00
1997 106.8600 582.00 588.31 12.00
1998 106.9100 616.00 601.79 12.00
1999 106.9600 615.00 620.04 12.00
2000 107.0100 660.00 643.08 13.00
2001 107.0600 660.00 669.98 13.00
2002 107.1100 691.00 698.64 13.00
2003 107.1600 695.00 725.67 13.00
2004 107.2100 726.00 746.61 13.00
2005 107.2600 741.00 756.88 14.00
2006 107.3100 738.00 753.74 14.00
2007 107.3600 719.00 737.98 13.00
2008 107.4100 694.00 713.37 13.00
2009 107.4600 703.00 684.61 13.00
2010 107.5100 690.00 655.76 13.00
2011 107.5600 622.00 627.57 12.00
2012 107.6100 612.00 605.93 12.00
2013 107.6600 595.00 589.17 12.00
2014 107.7100 589.00 576.98 12.00
2015 107.7600 576.00 568.58 11.00
2016 107.8100 549.00 563.04 10.00
2017 107.8600 550.00 559.48 10.00
2018 107.9100 568.00 557.22 11.00
2019 107.9600 561.00 555.77 11.00
2020 108.0100 572.00 554.81 11.00
2021 108.0600 560.00 554.17 11.00
2022 108.1100 545.00 553.74 10.00
2023 108.1600 567.00 553.47 11.00
2024 108.2100 559.00 557.81 11.00
2025 108.2600 546.00 557.72 10.00
2026 108.3100 548.00 558.00 10.00
2027 108.3600 539.00 558.46 10.00
2028 108.4100 564.00 559.16 11.00
2029 108.4600 563.00 560.21 11.00
2030 108.5100 532.00 561.79 10.00
2031 108.5600 564.00 564.24 11.00
2032 108.6100 572.00 568.10 11.00
2033 108.6600 582.00 574.23 11.00
2034 108.7100 570.00 583.80 11.00
2035 108.7600 579.00 598.32 11.00
2036 108.8100 629.00 619.46 11.00
2037 108.8600 667.00 648.76 12.00
2038 108.9100 676.00 687.12 12.00
2039 108.9600 761.00 734.28 12.00
2040 109.0100 800.00 788.30 13.00
2041 109.0600 834.00 845.20 13.00
2042 109.1100 891.00 898.85 13.00
2043 109.1600 899.00 941.37 15.00
2044 109.2100 959.00 964.57 15.00
2045 109.2600 940.00 963.11 15.00
2046 109.3100 933.00 937.33 15.00
2047 109.3600 902.00 893.10 15.00
2048 109.4100 858.00 838.61 15.00
2049 109.4600 816.00 781.62 14.00
2050 109.5100 759.00 728.00 14.00
2051 109.5600 675.00 681.51 13.00
2052 109.6100 644.00 643.93 13.00
2053 109.6600 622.00 615.34 12.00
2054 109.7100 613.00 594.77 12.00
2055 109.7600 564.00 580.65 12.00
2056 109.8100 565.00 571.31 12.00
2057 109.8600 557.00 565.29 12.00
2058 109.9100 582.00 561.44 12.00
2059 109.9600 559.00 561.37 12.00
2060 110.0100 576.00 559.76 12.00
2061 110.0600 543.00 558.67 12.00
2062 110.1100 565.00 557.91 12.00
2063 110.1600 559.00 557.40 11.00
2064 110.2100 558.00 557.06 11.00
2065 110.2600 565.00 556.87 11.00
2066 110.3100 561.00 556.81 11.00
2067 110.3600 558.00 556.87 11.00
2068 110.4100 561.00 557.04 11.00
2069 110.4600 557.00 557.32 11.00
2070 110.5100 562.00 557.71 11.00
2071 110.5600 570.00 558.52 11.00
2072 110.6100 573.00 559.14 11.00
2073 110.6600 559.00 559.87 11.00
2074 110.7100 569.00 560.72 11.00
2075 110.7600 568.00 561.70 11.00
2076 110.8100 567.00 562.82 11.00
2077 110.8600 568.00 564.09 11.00
2078 110.9100 554.00 565.52 10.00
2079 110.9600 581.00 567.13 11.00
2080 111.0100 571.00 568.93 11.00
2081 111.0600 585.00 570.74 11.00
2082 111.1100 567.00 573.02 11.00
2083 111.1600 561.00 575.58 11.00
2084 111.2100 590.00 578.45 11.00
2085 111.2600 582.00 581.68 11.00
2086 111.3100 584.00 585.32 11.00
2087 111.3600 613.00 589.44 11.00
2088 111.4100 602.00 594.12 11.00
2089 111.4600 605.00 599.46 11.00
2090 111.5100 614.00 605.60 12.00
2091 111.5600 613.00 612.77 12.00
2092 111.6100 634.00 621.31 13.00
2093 111.6600 659.00 631.79 13.00
2094 111.7100 656.00 645.19 13.00
2095 111.7600 655.00 663.19 13.00
2096 111.8100 694.00 688.53 13.00
2097 111.8600 701.00 725.51 13.00
2098 111.9100 790.00 780.56 14.00
2099 111.9600 832.00 862.58 14.00
2100 112.0100 955.00 982.98 15.00
2101 112.0600 1064.00 1154.88 16.00
2102 112.1100 1315.00 1391.43 18.00
2103 112.1600 1665.00 1703.30 20.00
2104 112.2100 2032.00 2094.70 23.00
2105 112.2600 2558.00 2560.09 25.00
2106 112.3100 3083.00 3080.68 28.00
2107 112.3600 3597.00 3622.54 30.00
2108 112.4100 4090.00 4136.54 32.00
2109 112.4600 4386.00 4560.43 33.00
2110 112.5100 4621.00 4828.89 34.00
2111 112.5600 4679.00 4891.95 34.00
2112 112.6100 4605.00 4737.18 34.00
2113 112.6600 4382.00 4395.58 33.00
2114 112.7100 4005.00 3926.52 32.00
2115 112.7600 3580.00 3395.15 30.00
2116 112.8100 3084.00 2858.64 28.00
2117 112.8600 2518.00 2359.80 25.00
2118 112.9100 1984.00 1925.77 22.00
2119 112.9600 1559.00 1569.94 20.00
2120 113.0100 1259.00 1292.31 18.00
2121 113.0600 1038.00 1086.02 16.00
2122 113.1100 914.00 938.99 15.00
2123 113.1600 825.00 837.82 14.00
2124 113.2100 763.00 769.61 14.00
2125 113.2600 744.00 724.93 14.00
2126 113.3100 727.00 695.54 13.00
2127 113.3600 751.00 676.04 14.00
2128 113.4100 716.00 662.86 13.00
2129 113.4600 693.00 653.84 13.00
2130 113.5100 696.00 647.73 13.00
2131 113.5600 670.00 643.88 13.00
2132 113.6100 650.00 642.03 13.00
2133 113.6600 705.00 642.28 13.00
2134 113.7100 696.00 645.03 13.00
2135 113.7600 673.00 651.14 13.00
2136 113.8100 713.00 662.05 13.00
2137 113.8600 722.00 680.03 13.00
2138 113.9100 722.00 708.38 15.00
2139 113.9600 755.00 751.55 16.00
2140 114.0100 814.00 815.10 16.00
2141 114.0600 906.00 905.39 17.00
2142 114.1100 1062.00 1028.72 19.00
2143 114.1600 1145.00 1190.24 20.00
2144 114.2100 1394.00 1392.29 22.00
2145 114.2600 1694.00 1633.01 24.00
2146 114.3100 1964.00 1904.64 26.00
2147 114.3600 2262.00 2192.73 27.00
2148 114.4100 2509.00 2476.05 29.00
2149 114.4600 2690.00 2726.79 30.00
2150 114.5100 2725.00 2913.79 30.00
2151 114.5600 2884.00 3008.70 31.00
2152 114.6100 2889.00 2995.82 31.00
2153 114.6600 2852.00 2879.04 31.00
2154 114.7100 2655.00 2680.11 30.00
2155 114.7600 2478.00 2431.40 29.00
2156 114.8100 2288.00 2161.54 28.00
2157 114.8600 2059.00 1898.40 26.00
2158 114.9100 1767.00 1661.40 24.00
2159 114.9600 1567.00 1462.37 23.00
2160 115.0100 1332.00 1305.86 21.00
2161 115.0600 1153.00 1190.32 20.00
2162 115.1100 1066.00 1109.39 19.00
2163 115.1600 1012.00 1053.82 18.00
2164 115.2100 1011.00 1013.38 18.00
2165 115.2600 953.00 978.80 18.00
2166 115.3100 913.00 943.62 17.00
2167 115.3600 945.00 904.82 18.00
2168 115.4100 916.00 862.41 17.00
2169 115.4600 848.00 818.07 17.00
2170 115.5100 809.00 774.04 16.00
2171 115.5600 776.00 732.47 16.00
2172 115.6100 743.00 695.00 16.00
2173 115.6600 693.00 662.65 15.00
2174 115.7100 674.00 635.81 15.00
2175 115.7600 663.00 614.32 15.00
2176 115.8100 627.00 597.64 14.00
2177 115.8600 624.00 585.01 14.00
2178 115.9100 591.00 575.60 14.00
2179 115.9600 584.00 568.63 14.00
2180 116.0100 570.00 563.44 14.00
2181 116.0600 610.00 559.52 14.00
2182 116.1100 629.00 556.47 14.00
2183 116.1600 585.00 554.04 14.00
2184 116.2100 607.00 552.05 14.00
2185 116.2600 570.00 550.38 14.00
2186 116.3100 575.00 548.96 17.00
2187 116.3600 538.00 547.74 16.00
2188 116.4100 557.00 546.70 17.00
2189 116.4600 556.00 545.80 17.00
2190 116.5100 530.00 545.05 16.00
2191 116.5600 569.00 544.42 17.00
2192 116.6100 581.00 543.92 17.00
2193 116.6600 546.00 543.53 17.00
2194 116.7100 568.00 543.27 17.00
2195 116.7600 575.00 543.12 17.00
2196 116.8100 575.00 543.09 17.00
2197 116.8600 560.00 543.18 17.00
2198 116.9100 548.00 539.01 17.00
2199 116.9600 525.00 539.52 16.00
2200 117.0100 540.00 540.24 16.00
2201 117.0600 566.00 541.23 17.00
2202 117.1100 569.00 542.62 17.00
2203 117.1600 524.00 544.58 16.00
2204 117.2100 550.00 547.37 17.00
2205 117.2600 560.00 551.37 17.00
2206 117.3100 567.00 557.10 17.00
2207 117.3600 562.00 565.22 17.00
2208 117.4100 579.00 576.54 17.00
2209 117.4600 607.00 591.94 17.00
2210 117.5100 586.00 612.32 17.00
2211 117.5600 649.00 638.41 18.00
2212 117.6100 699.00 670.66 19.00
2213 117.6600 749.00 709.02 19.00
2214 117.7100 744.00 752.73 19.00
2215 117.7600 830.00 800.26 20.00
2216 117.8100 865.00 852.41 21.00
2217 117.8600 920.00 899.49 21.00
2218 117.9100 933.00 940.68 22.00
2219 117.9600 988.00 971.59 22.00
2220 118.0100 957.00 988.37 22.00
2221 118.0600 940.00 988.68 22.00
2222 118.1100 937.00 972.61 22.00
2223 118.1600 954.00 942.54 22.00
2224 118.2100 912.00 902.40 21.00
2225 118.2600 899.00 856.50 21.00
2226 118.3100 834.00 808.81 20.00
2227 118.3600 752.00 762.60 19.00
2228 118.4100 675.00 720.27 18.00
2229 118.4600 664.00 683.36 18.00
2230 118.5100 651.00 652.59 18.00
2231 118.5600 633.00 628.01 18.00
2232 118.6100 616.00 609.20 18.00
2233 118.6600 603.00 595.41 17.00
2234 118.7100 589.00 585.76 24.00
2235 118.7600 565.00 579.39 24.00
2236 118.8100 599.00 575.52 24.00
2237 118.8600 557.00 573.51 24.00
2238 118.9100 592.00 572.89 24.00
2239 118.9600 551.00 573.34 23.00
2240 119.0100 586.00 574.66 24.00
2241 119.0600 591.00 576.82 24.00
2242 119.1100 579.00 579.86 24.00
2243 119.1600 610.00 584.03 25.00
2244 119.2100 538.00 587.30 23.00
2245 119.2600 581.00 595.19 24.00
2246 119.3100 590.00 606.16 24.00
2247 119.3600 568.00 621.47 24.00
2248 119.4100 554.00 642.80 24.00
2249 119.4600 671.00 672.25 26.00
2250 119.5100 702.00 712.26 26.00
2251 119.5600 690.00 765.46 26.00
2252 119.6100 687.00 834.38 26.00
2253 119.6600 805.00 921.16 28.00
2254 119.7100 974.00 1027.15 31.00
2255 119.7600 1068.00 1151.87 33.00
2256 119.8100 1153.00 1293.37 34.00
2257 119.8600 1447.00 1447.42 38.00
2258 119.9100 1549.00 1607.40 39.00
2259 119.9600 1648.00 1763.94 41.00
2260 120.0100 1840.00 1906.56 43.00
2261 120.0600 1870.00 2022.35 43.00
2262 120.1100 1867.00 2099.15 43.00
2263 120.1600 1827.00 2127.76 43.00
2264 120.2100 1880.00 2104.58 43.00
2265 120.2600 1966.00 2032.82 44.00
2266 120.3100 1796.00 1921.43 42.00
2267 120.3600 1738.00 1782.33 42.00
2268 120.4100 1486.00 1627.95 39.00
2269 120.4600 1473.00 1469.66 38.00
2270 120.5100 1309.00 1316.50 36.00
2271 120.5600 1106.00 1175.44 33.00
2272 120.6100 1027.00 1050.87 32.00
2273 120.6600 888.00 944.98 30.00
2274 120.7100 791.00 858.14 28.00
2275 120.7600 694.00 789.23 26.00
2276 120.8100 633.00 736.18 25.00
2277 120.8600 648.00 696.47 25.00
2278 120.9100 644.00 667.45 25.00
2279 120.9600 597.00 646.69 24.00
2280 121.0100 582.00 632.06 24.00
2281 121.0600 626.00 621.85 25.00
loop_
_pd_proc_info_excluded_regions
'from 0 to 7.000'
loop_
_refln_index_h
_refln_index_k
_refln_index_l
_refln_F_squared_calc
_refln_F_squared_meas
_refln_observed_status
_refln_d_spacing
1 1 1 2097.93 2075.15 o 4.811672
2 0 2 2403.77 2377.13 o 2.946535
1 1 3 6837.94 6790.77 o 2.512814
2 2 2 3890.36 3864.78 o 2.405836
0 0 4 59548.32 58960.19 o 2.083515
3 1 3 42.56 56.93 o 1.911965
2 2 4 1687.33 1725.35 o 1.701183
1 1 5 17488.05 17550.81 o 1.603891
3 3 3 940.33 943.70 o 1.603891
4 0 4 102897.20 103614.02 o 1.473268
3 1 5 1917.16 1934.80 o 1.408713
4 2 4 216.51 236.48 o 1.389010
2 0 6 1117.34 1080.95 o 1.317731
3 3 5 6920.29 6879.64 o 1.270932
2 2 6 1998.38 1935.18 o 1.256407
4 4 4 49193.87 50375.93 o 1.202918
1 1 7 41.69 42.16 o 1.167002
5 1 5 7948.21 8038.36 o 1.167002
4 2 6 2753.75 2775.38 o 1.113686
5 3 5 15176.37 15517.37 o 1.085002
3 1 7 1099.02 1123.71 o 1.085002
0 0 8 87267.23 83714.77 o 1.041758
3 3 7 2514.42 2484.92 o 1.018167
4 4 6 173.30 166.47 o 1.010653
6 0 6 5004.69 4916.21 o 0.982178
2 2 8 2013.16 1977.57 o 0.982178
5 5 5 27613.95 27687.17 o 0.962334
5 1 7 5801.54 5816.92 o 0.962334
6 2 6 857.81 881.40 o 0.955982
4 0 8 40384.10 39858.85 o 0.931776
5 3 7 0.63 0.62 o 0.914782
1 1 9 7298.51 7170.08 o 0.914782
4 2 8 715.70 734.34 o 0.909321
6 4 6 198.63 145.84 o 0.888414
3 1 9 14851.49 14791.03 o 0.873647
4 4 8 74772.14 76235.04 o 0.850591
7 1 7 1705.65 1758.71 o 0.837605
3 3 9 2214.77 2283.66 o 0.837605
5 5 7 1106.38 1140.80 o 0.837605
6 2 8 1047.44 1029.11 o 0.817222
2 0 10 3062.86 3009.27 o 0.817222
7 3 7 47.14 46.84 o 0.805684
5 1 9 24337.37 24182.48 o 0.805684
6 6 6 252.29 235.59 o 0.801945
2 2 10 198.75 185.60 o 0.801945
5 3 9 5660.93 5592.52 o 0.777155
6 4 8 572.55 553.13 o 0.773798
4 2 10 652.81 611.44 o 0.760792
7 5 7 1909.09 1899.28 o 0.751457
1 1 11 930.45 925.67 o 0.751457
8 0 8 63891.14 63124.84 o 0.736634
7 1 9 1485.10 1485.31 o 0.728150
5 5 9 12802.68 12804.51 o 0.728150
3 1 11 1585.80 1586.03 o 0.728150
4 4 10 108.43 112.30 o 0.725387
8 2 8 2365.26 2449.82 o 0.725387
6 6 8 3774.45 3752.43 o 0.714640
6 0 10 9.38 9.33 o 0.714640
7 3 9 6907.61 6139.95 o 0.706886
3 3 11 10.48 9.31 o 0.706886
6 2 10 7.06 6.39 o 0.704357
