#------------------------------------------------------------------------------
#$Date: 2016-03-21 01:21:50 +0200 (Mon, 21 Mar 2016) $
#$Revision: 178377 $
#$URL: svn://www.crystallography.net/cod/cif/4/00/13/4001314.cif $
#------------------------------------------------------------------------------
#
# This file is available in the Crystallography Open Database (COD),
# http://www.crystallography.net/
#
# All data on this site have been placed in the public domain by the
# contributors.
#
data_4001314
loop_
_publ_author_name
'Bernuy-Lopez, Carlos'
'Allix, Mathieu'
'Bridges, Craig A.'
'Claridge, John B.'
'Rosseinsky, Matthew J.'
_publ_section_title
;
 Sr2MgMoO6-\d:&#x00A0; Structure, Phase Stability, and Cation Site Order
 Control of Reduction
;
_journal_issue                   5
_journal_name_full               'Chemistry of Materials'
_journal_page_first              1035
_journal_paper_doi               10.1021/cm0624116
_journal_volume                  19
_journal_year                    2007
_chemical_formula_sum            'Mg O'
_chemical_formula_weight         40.30
_chemical_name_systematic        ' ?'
_space_group_IT_number           225
_symmetry_cell_setting           cubic
_symmetry_space_group_name_Hall  '-F 4 2 3'
_symmetry_space_group_name_H-M   'F m -3 m'
_cell_angle_alpha                90.0
_cell_angle_beta                 90.0
_cell_angle_gamma                90.0
_cell_formula_units_Z            4
_cell_length_a                   4.21041(15)
_cell_length_b                   4.21041
_cell_length_c                   4.21041
_cell_volume                     74.640(3)
_pd_block_id                     2006-10-06T09:09|FINAL_phase3|jbc||
_pd_phase_name
'from C:/Carlos/Sr2MgMoO6/POLARIS/PF4_FINAL_ANISO_CONTINUE.EXP'
_cod_data_source_file            cm0624116si20061009_082105.cif
_cod_data_source_block           FINAL_phase_3
_cod_depositor_comments
;
The following automatic conversions were performed:

'_geom_bond_publ_flag' value 'N' changed to 'n' according to
/home/saulius/struct/CIF-dictionaries/cif_core.dic dictionary named
'cif_core.dic' version 2.4.1 from 2010-06-29 (24
times).

'_geom_angle_publ_flag' value 'N' changed to 'n' according
to /home/saulius/struct/CIF-dictionaries/cif_core.dic dictionary
named 'cif_core.dic' version 2.4.1 from 2010-06-29 (168 times).

Automatic conversion script
Id: cif_fix_values 1715 2011-07-08 13:25:40Z adriana 
;
_cod_original_cell_volume        74.640(8)
_cod_database_code               4001314
loop_
_symmetry_equiv_pos_site_id
_symmetry_equiv_pos_as_xyz
1 +x,+y,+z
2 +z,+x,+y
3 +y,+z,+x
4 +x,+y,-z
5 -z,+x,+y
6 +y,-z,+x
7 -z,+x,-y
8 -y,-z,+x
9 +y,-z,-x
10 -x,+y,-z
11 -z,-x,+y
12 +x,-y,-z
13 +y,+x,+z
14 +z,+y,+x
15 +x,+z,+y
16 +y,+x,-z
17 -z,+y,+x
18 +x,-z,+y
19 -z,+y,-x
20 -x,-z,+y
21 +x,-z,-y
22 -y,+x,-z
23 -z,-y,+x
24 +y,-x,-z
-1 -x,-y,-z
-2 -z,-x,-y
-3 -y,-z,-x
-4 -x,-y,+z
-5 +z,-x,-y
-6 -y,+z,-x
-7 +z,-x,+y
-8 +y,+z,-x
-9 -y,+z,+x
-10 +x,-y,+z
-11 +z,+x,-y
-12 -x,+y,+z
-13 -y,-x,-z
-14 -z,-y,-x
-15 -x,-z,-y
-16 -y,-x,+z
-17 +z,-y,-x
-18 -x,+z,-y
-19 +z,-y,+x
-20 +x,+z,-y
-21 -x,+z,+y
-22 +y,-x,+z
-23 +z,+y,-x
-24 -y,+x,+z
101 +x,+y+1/2,+z+1/2
102 +z,+x+1/2,+y+1/2
103 +y,+z+1/2,+x+1/2
104 +x,+y+1/2,-z+1/2
105 -z,+x+1/2,+y+1/2
106 +y,-z+1/2,+x+1/2
107 -z,+x+1/2,-y+1/2
108 -y,-z+1/2,+x+1/2
109 +y,-z+1/2,-x+1/2
110 -x,+y+1/2,-z+1/2
111 -z,-x+1/2,+y+1/2
112 +x,-y+1/2,-z+1/2
113 +y,+x+1/2,+z+1/2
114 +z,+y+1/2,+x+1/2
115 +x,+z+1/2,+y+1/2
116 +y,+x+1/2,-z+1/2
117 -z,+y+1/2,+x+1/2
118 +x,-z+1/2,+y+1/2
119 -z,+y+1/2,-x+1/2
120 -x,-z+1/2,+y+1/2
121 +x,-z+1/2,-y+1/2
122 -y,+x+1/2,-z+1/2
123 -z,-y+1/2,+x+1/2
124 +y,-x+1/2,-z+1/2
-101 -x,-y+1/2,-z+1/2
-102 -z,-x+1/2,-y+1/2
-103 -y,-z+1/2,-x+1/2
-104 -x,-y+1/2,+z+1/2
-105 +z,-x+1/2,-y+1/2
-106 -y,+z+1/2,-x+1/2
-107 +z,-x+1/2,+y+1/2
-108 +y,+z+1/2,-x+1/2
-109 -y,+z+1/2,+x+1/2
-110 +x,-y+1/2,+z+1/2
-111 +z,+x+1/2,-y+1/2
-112 -x,+y+1/2,+z+1/2
-113 -y,-x+1/2,-z+1/2
-114 -z,-y+1/2,-x+1/2
-115 -x,-z+1/2,-y+1/2
-116 -y,-x+1/2,+z+1/2
-117 +z,-y+1/2,-x+1/2
-118 -x,+z+1/2,-y+1/2
-119 +z,-y+1/2,+x+1/2
-120 +x,+z+1/2,-y+1/2
-121 -x,+z+1/2,+y+1/2
-122 +y,-x+1/2,+z+1/2
-123 +z,+y+1/2,-x+1/2
-124 -y,+x+1/2,+z+1/2
201 +x+1/2,+y,+z+1/2
202 +z+1/2,+x,+y+1/2
203 +y+1/2,+z,+x+1/2
204 +x+1/2,+y,-z+1/2
205 -z+1/2,+x,+y+1/2
206 +y+1/2,-z,+x+1/2
207 -z+1/2,+x,-y+1/2
208 -y+1/2,-z,+x+1/2
209 +y+1/2,-z,-x+1/2
210 -x+1/2,+y,-z+1/2
211 -z+1/2,-x,+y+1/2
212 +x+1/2,-y,-z+1/2
213 +y+1/2,+x,+z+1/2
214 +z+1/2,+y,+x+1/2
215 +x+1/2,+z,+y+1/2
216 +y+1/2,+x,-z+1/2
217 -z+1/2,+y,+x+1/2
218 +x+1/2,-z,+y+1/2
219 -z+1/2,+y,-x+1/2
220 -x+1/2,-z,+y+1/2
221 +x+1/2,-z,-y+1/2
222 -y+1/2,+x,-z+1/2
223 -z+1/2,-y,+x+1/2
224 +y+1/2,-x,-z+1/2
-201 -x+1/2,-y,-z+1/2
-202 -z+1/2,-x,-y+1/2
-203 -y+1/2,-z,-x+1/2
-204 -x+1/2,-y,+z+1/2
-205 +z+1/2,-x,-y+1/2
-206 -y+1/2,+z,-x+1/2
-207 +z+1/2,-x,+y+1/2
-208 +y+1/2,+z,-x+1/2
-209 -y+1/2,+z,+x+1/2
-210 +x+1/2,-y,+z+1/2
-211 +z+1/2,+x,-y+1/2
-212 -x+1/2,+y,+z+1/2
-213 -y+1/2,-x,-z+1/2
-214 -z+1/2,-y,-x+1/2
-215 -x+1/2,-z,-y+1/2
-216 -y+1/2,-x,+z+1/2
-217 +z+1/2,-y,-x+1/2
-218 -x+1/2,+z,-y+1/2
-219 +z+1/2,-y,+x+1/2
-220 +x+1/2,+z,-y+1/2
-221 -x+1/2,+z,+y+1/2
-222 +y+1/2,-x,+z+1/2
-223 +z+1/2,+y,-x+1/2
-224 -y+1/2,+x,+z+1/2
301 +x+1/2,+y+1/2,+z
302 +z+1/2,+x+1/2,+y
303 +y+1/2,+z+1/2,+x
304 +x+1/2,+y+1/2,-z
305 -z+1/2,+x+1/2,+y
306 +y+1/2,-z+1/2,+x
307 -z+1/2,+x+1/2,-y
308 -y+1/2,-z+1/2,+x
309 +y+1/2,-z+1/2,-x
310 -x+1/2,+y+1/2,-z
311 -z+1/2,-x+1/2,+y
312 +x+1/2,-y+1/2,-z
313 +y+1/2,+x+1/2,+z
314 +z+1/2,+y+1/2,+x
315 +x+1/2,+z+1/2,+y
316 +y+1/2,+x+1/2,-z
317 -z+1/2,+y+1/2,+x
318 +x+1/2,-z+1/2,+y
319 -z+1/2,+y+1/2,-x
320 -x+1/2,-z+1/2,+y
321 +x+1/2,-z+1/2,-y
322 -y+1/2,+x+1/2,-z
323 -z+1/2,-y+1/2,+x
324 +y+1/2,-x+1/2,-z
-301 -x+1/2,-y+1/2,-z
-302 -z+1/2,-x+1/2,-y
-303 -y+1/2,-z+1/2,-x
-304 -x+1/2,-y+1/2,+z
-305 +z+1/2,-x+1/2,-y
-306 -y+1/2,+z+1/2,-x
-307 +z+1/2,-x+1/2,+y
-308 +y+1/2,+z+1/2,-x
-309 -y+1/2,+z+1/2,+x
-310 +x+1/2,-y+1/2,+z
-311 +z+1/2,+x+1/2,-y
-312 -x+1/2,+y+1/2,+z
-313 -y+1/2,-x+1/2,-z
-314 -z+1/2,-y+1/2,-x
-315 -x+1/2,-z+1/2,-y
-316 -y+1/2,-x+1/2,+z
-317 +z+1/2,-y+1/2,-x
-318 -x+1/2,+z+1/2,-y
-319 +z+1/2,-y+1/2,+x
-320 +x+1/2,+z+1/2,-y
-321 -x+1/2,+z+1/2,+y
-322 +y+1/2,-x+1/2,+z
-323 +z+1/2,+y+1/2,-x
-324 -y+1/2,+x+1/2,+z
loop_
_atom_site_type_symbol
_atom_site_label
_atom_site_fract_x
_atom_site_fract_y
_atom_site_fract_z
_atom_site_occupancy
_atom_site_thermal_displace_type
_atom_site_U_iso_or_equiv
_atom_site_symmetry_multiplicity
Mg Mg1 0.0 0.0 0.0 1.0 Uiso 0.01 4
O O1 0.5 0.5 0.5 1.0 Uiso 0.01 4
loop_
_atom_type_symbol
_atom_type_number_in_cell
Mg 4.0
O 4.0
loop_
_geom_angle_atom_site_label_1
_geom_angle_atom_site_label_2
_geom_angle_atom_site_label_3
_geom_angle
_geom_angle_site_symmetry_1
_geom_angle_site_symmetry_3
_geom_angle_publ_flag
Mg1 Mg1 Mg1 90.0000(28) 101_544 101_545 n
Mg1 Mg1 Mg1 90.0000(28) 101_544 101_554 n
Mg1 Mg1 Mg1 179.972 101_544 101_555 n
Mg1 Mg1 Mg1 60.0000(16) 101_544 201_454 n
Mg1 Mg1 Mg1 120.0000(16) 101_544 201_455 n
Mg1 Mg1 Mg1 60.0000(16) 101_544 201_554 n
Mg1 Mg1 Mg1 120.0000(16) 101_544 201_555 n
Mg1 Mg1 Mg1 60.0000(8) 101_544 301_445 n
Mg1 Mg1 Mg1 120.0000(8) 101_544 301_455 n
Mg1 Mg1 Mg1 60.0000(8) 101_544 301_545 n
Mg1 Mg1 Mg1 120.0000(8) 101_544 301_555 n
Mg1 Mg1 O1 90.0 101_544 101_444 n
Mg1 Mg1 O1 90.0 101_544 101_544 n
Mg1 Mg1 O1 45.0000(14) 101_544 201_444 n
Mg1 Mg1 O1 135.0000(14) 101_544 201_454 n
Mg1 Mg1 O1 45.0000(14) 101_544 301_444 n
Mg1 Mg1 O1 135.0000(14) 101_544 301_445 n
Mg1 Mg1 Mg1 180.0 101_545 101_554 n
Mg1 Mg1 Mg1 90.0000(28) 101_545 101_555 n
Mg1 Mg1 Mg1 120.0000(16) 101_545 201_454 n
Mg1 Mg1 Mg1 60.0000(16) 101_545 201_455 n
Mg1 Mg1 Mg1 120.0000(16) 101_545 201_554 n
Mg1 Mg1 Mg1 60.0000(16) 101_545 201_555 n
Mg1 Mg1 Mg1 60.0000(8) 101_545 301_445 n
Mg1 Mg1 Mg1 120.0000(8) 101_545 301_455 n
Mg1 Mg1 Mg1 60.0000(8) 101_545 301_545 n
Mg1 Mg1 Mg1 120.0000(8) 101_545 301_555 n
Mg1 Mg1 O1 90.0 101_545 101_444 n
Mg1 Mg1 O1 90.0 101_545 101_544 n
Mg1 Mg1 O1 45.0000(14) 101_545 201_444 n
Mg1 Mg1 O1 135.0000(14) 101_545 201_454 n
Mg1 Mg1 O1 135.0000(14) 101_545 301_444 n
Mg1 Mg1 O1 45.0000(14) 101_545 301_445 n
Mg1 Mg1 Mg1 90.0000(28) 101_554 101_555 n
Mg1 Mg1 Mg1 60.0000(16) 101_554 201_454 n
Mg1 Mg1 Mg1 120.0000(16) 101_554 201_455 n
Mg1 Mg1 Mg1 60.0000(16) 101_554 201_554 n
Mg1 Mg1 Mg1 120.0000(16) 101_554 201_555 n
Mg1 Mg1 Mg1 120.0000(8) 101_554 301_445 n
Mg1 Mg1 Mg1 60.0000(8) 101_554 301_455 n
Mg1 Mg1 Mg1 120.0000(8) 101_554 301_545 n
Mg1 Mg1 Mg1 60.0000(8) 101_554 301_555 n
Mg1 Mg1 O1 90.0 101_554 101_444 n
Mg1 Mg1 O1 90.0 101_554 101_544 n
Mg1 Mg1 O1 135.0000(14) 101_554 201_444 n
Mg1 Mg1 O1 45.0000(14) 101_554 201_454 n
Mg1 Mg1 O1 45.0000(14) 101_554 301_444 n
Mg1 Mg1 O1 135.0000(14) 101_554 301_445 n
Mg1 Mg1 Mg1 120.0000(16) 101_555 201_454 n
Mg1 Mg1 Mg1 60.0000(16) 101_555 201_455 n
Mg1 Mg1 Mg1 120.0000(16) 101_555 201_554 n
Mg1 Mg1 Mg1 60.0000(16) 101_555 201_555 n
Mg1 Mg1 Mg1 120.0000(8) 101_555 301_445 n
Mg1 Mg1 Mg1 60.0000(8) 101_555 301_455 n
Mg1 Mg1 Mg1 120.0000(8) 101_555 301_545 n
Mg1 Mg1 Mg1 60.0000(8) 101_555 301_555 n
Mg1 Mg1 O1 90.0 101_555 101_444 n
Mg1 Mg1 O1 90.0 101_555 101_544 n
Mg1 Mg1 O1 135.0000(14) 101_555 201_444 n
Mg1 Mg1 O1 45.0000(14) 101_555 201_454 n
Mg1 Mg1 O1 135.0000(14) 101_555 301_444 n
Mg1 Mg1 O1 45.0000(14) 101_555 301_445 n
Mg1 Mg1 Mg1 90.0000(28) 201_454 201_455 n
Mg1 Mg1 Mg1 90.0000(28) 201_454 201_554 n
Mg1 Mg1 Mg1 179.972 201_454 201_555 n
Mg1 Mg1 Mg1 60.0000(8) 201_454 301_445 n
Mg1 Mg1 Mg1 60.0000(8) 201_454 301_455 n
Mg1 Mg1 Mg1 120.0000(8) 201_454 301_545 n
Mg1 Mg1 Mg1 120.0000(8) 201_454 301_555 n
Mg1 Mg1 O1 45.0000(14) 201_454 101_444 n
Mg1 Mg1 O1 135.0000(14) 201_454 101_544 n
Mg1 Mg1 O1 90.0 201_454 201_444 n
Mg1 Mg1 O1 90.0 201_454 201_454 n
Mg1 Mg1 O1 45.0000(14) 201_454 301_444 n
Mg1 Mg1 O1 135.0000(14) 201_454 301_445 n
Mg1 Mg1 Mg1 180.0 201_455 201_554 n
Mg1 Mg1 Mg1 90.0000(28) 201_455 201_555 n
Mg1 Mg1 Mg1 60.0000(8) 201_455 301_445 n
Mg1 Mg1 Mg1 60.0000(8) 201_455 301_455 n
Mg1 Mg1 Mg1 120.0000(8) 201_455 301_545 n
Mg1 Mg1 Mg1 120.0000(8) 201_455 301_555 n
Mg1 Mg1 O1 45.0000(14) 201_455 101_444 n
Mg1 Mg1 O1 135.0000(14) 201_455 101_544 n
Mg1 Mg1 O1 90.0 201_455 201_444 n
Mg1 Mg1 O1 90.0 201_455 201_454 n
Mg1 Mg1 O1 135.0000(14) 201_455 301_444 n
Mg1 Mg1 O1 45.0000(14) 201_455 301_445 n
Mg1 Mg1 Mg1 90.0000(28) 201_554 201_555 n
Mg1 Mg1 Mg1 120.0000(8) 201_554 301_445 n
Mg1 Mg1 Mg1 120.0000(8) 201_554 301_455 n
Mg1 Mg1 Mg1 60.0000(8) 201_554 301_545 n
Mg1 Mg1 Mg1 60.0000(8) 201_554 301_555 n
Mg1 Mg1 O1 135.0000(14) 201_554 101_444 n
Mg1 Mg1 O1 45.0000(14) 201_554 101_544 n
Mg1 Mg1 O1 90.0 201_554 201_444 n
Mg1 Mg1 O1 90.0 201_554 201_454 n
Mg1 Mg1 O1 45.0000(14) 201_554 301_444 n
Mg1 Mg1 O1 135.0000(14) 201_554 301_445 n
Mg1 Mg1 Mg1 120.0000(8) 201_555 301_445 n
Mg1 Mg1 Mg1 120.0000(8) 201_555 301_455 n
Mg1 Mg1 Mg1 60.0000(8) 201_555 301_545 n
Mg1 Mg1 Mg1 60.0000(8) 201_555 301_555 n
Mg1 Mg1 O1 135.0000(14) 201_555 101_444 n
Mg1 Mg1 O1 45.0000(14) 201_555 101_544 n
Mg1 Mg1 O1 90.0 201_555 201_444 n
Mg1 Mg1 O1 90.0 201_555 201_454 n
Mg1 Mg1 O1 135.0000(14) 201_555 301_444 n
Mg1 Mg1 O1 45.0000(14) 201_555 301_445 n
Mg1 Mg1 Mg1 90.0 301_445 301_455 n
Mg1 Mg1 Mg1 90.0 301_445 301_545 n
Mg1 Mg1 Mg1 179.972 301_445 301_555 n
Mg1 Mg1 O1 45.0 301_445 101_444 n
Mg1 Mg1 O1 135.0 301_445 101_544 n
Mg1 Mg1 O1 45.0 301_445 201_444 n
Mg1 Mg1 O1 135.0 301_445 201_454 n
Mg1 Mg1 O1 90.0 301_445 301_444 n
Mg1 Mg1 O1 90.0 301_445 301_445 n
Mg1 Mg1 Mg1 180.0 301_455 301_545 n
Mg1 Mg1 Mg1 90.0 301_455 301_555 n
Mg1 Mg1 O1 45.0 301_455 101_444 n
Mg1 Mg1 O1 135.0 301_455 101_544 n
Mg1 Mg1 O1 135.0 301_455 201_444 n
Mg1 Mg1 O1 45.0 301_455 201_454 n
Mg1 Mg1 O1 90.0 301_455 301_444 n
Mg1 Mg1 O1 90.0 301_455 301_445 n
Mg1 Mg1 Mg1 90.0 301_545 301_555 n
Mg1 Mg1 O1 135.0 301_545 101_444 n
Mg1 Mg1 O1 45.0 301_545 101_544 n
Mg1 Mg1 O1 45.0 301_545 201_444 n
Mg1 Mg1 O1 135.0 301_545 201_454 n
Mg1 Mg1 O1 90.0 301_545 301_444 n
Mg1 Mg1 O1 90.0 301_545 301_445 n
Mg1 Mg1 O1 135.0 301_555 101_444 n
Mg1 Mg1 O1 45.0 301_555 101_544 n
Mg1 Mg1 O1 135.0 301_555 201_444 n
Mg1 Mg1 O1 45.0 301_555 201_454 n
Mg1 Mg1 O1 90.0 301_555 301_444 n
Mg1 Mg1 O1 90.0 301_555 301_445 n
O1 Mg1 O1 180.0 101_444 101_544 n
O1 Mg1 O1 90.0 101_444 201_444 n
O1 Mg1 O1 90.0 101_444 201_454 n
O1 Mg1 O1 90.0 101_444 301_444 n
O1 Mg1 O1 90.0 101_444 301_445 n
O1 Mg1 O1 90.0 101_544 201_444 n
O1 Mg1 O1 90.0 101_544 201_454 n
O1 Mg1 O1 90.0 101_544 301_444 n
O1 Mg1 O1 90.0 101_544 301_445 n
O1 Mg1 O1 180.0 201_444 201_454 n
O1 Mg1 O1 90.0 201_444 301_444 n
O1 Mg1 O1 90.0 201_444 301_445 n
O1 Mg1 O1 90.0 201_454 301_444 n
O1 Mg1 O1 90.0 201_454 301_445 n
O1 Mg1 O1 180.0 301_444 301_445 n
Mg1 O1 Mg1 180.0 101_555 101_655 n
Mg1 O1 Mg1 90.0 101_555 201_555 n
Mg1 O1 Mg1 90.0 101_555 201_565 n
Mg1 O1 Mg1 90.0 101_555 301_555 n
Mg1 O1 Mg1 90.0 101_555 301_556 n
Mg1 O1 Mg1 90.0 101_655 201_555 n
Mg1 O1 Mg1 90.0 101_655 201_565 n
Mg1 O1 Mg1 90.0 101_655 301_555 n
Mg1 O1 Mg1 90.0 101_655 301_556 n
Mg1 O1 Mg1 180.0 201_555 201_565 n
Mg1 O1 Mg1 90.0 201_555 301_555 n
Mg1 O1 Mg1 90.0 201_555 301_556 n
Mg1 O1 Mg1 90.0 201_565 301_555 n
Mg1 O1 Mg1 90.0 201_565 301_556 n
Mg1 O1 Mg1 180.0 301_555 301_556 n
loop_
_geom_bond_atom_site_label_1
_geom_bond_atom_site_label_2
_geom_bond_distance
_geom_bond_site_symmetry_2
_geom_bond_publ_flag
Mg1 Mg1 2.97721(7) 101_544 n
Mg1 Mg1 2.97721(7) 101_545 n
Mg1 Mg1 2.97721(7) 101_554 n
Mg1 Mg1 2.97721(7) 101_555 n
Mg1 Mg1 2.97721(7) 201_454 n
Mg1 Mg1 2.97721(7) 201_455 n
Mg1 Mg1 2.97721(7) 201_554 n
Mg1 Mg1 2.97721(7) 201_555 n
Mg1 Mg1 2.97721(10) 301_445 n
Mg1 Mg1 2.97721(10) 301_455 n
Mg1 Mg1 2.97721(10) 301_545 n
Mg1 Mg1 2.97721(10) 301_555 n
Mg1 O1 2.10521(7) 101_444 n
Mg1 O1 2.10521(7) 101_544 n
Mg1 O1 2.10521(7) 201_444 n
Mg1 O1 2.10521(7) 201_454 n
Mg1 O1 2.10521(7) 301_444 n
Mg1 O1 2.10521(7) 301_445 n
O1 Mg1 2.10521(7) 101_555 n
O1 Mg1 2.10521(7) 101_655 n
O1 Mg1 2.10521(7) 201_555 n
O1 Mg1 2.10521(7) 201_565 n
O1 Mg1 2.10521(7) 301_555 n
O1 Mg1 2.10521(7) 301_556 n
loop_
_pd_block_diffractogram_id
2006-10-06T09:09|FINAL_H_01|jbc|panalytical
