#------------------------------------------------------------------------------
#$Date: 2016-02-14 06:40:26 +0200 (Sun, 14 Feb 2016) $
#$Revision: 176432 $
#$URL: svn://www.crystallography.net/cod/cif/4/00/17/4001770.cif $
#------------------------------------------------------------------------------
#
# This file is available in the Crystallography Open Database (COD),
# http://www.crystallography.net/
#
# All data on this site have been placed in the public domain by the
# contributors.
#
data_4001770
loop_
_publ_author_name
'Allix, Mathieu'
'Chenu, S\'ebastien'
'V\'eron, Emmanuel'
'Poumeyrol, Thomas'
'Kouadri-Boudjelthia, El Amin'
'Alahrach\'e, Salaheddine'
'Porcher, Florence'
'Massiot, Dominique'
'Fayon, Franck'
_publ_section_title
;
 Considerable Improvement of Long-Persistent Luminescence in Germanium and
 Tin Substituted ZnGa2O4
;
_journal_issue                   9
_journal_name_full               'Chemistry of Materials'
_journal_page_first              1600
_journal_paper_doi               10.1021/cm304101n
_journal_volume                  25
_journal_year                    2013
_chemical_formula_sum            'Ga Ge0.5 O4 Zn1.5'
_chemical_formula_weight         268.1
_chemical_name_systematic        ' ?'
_space_group_IT_number           227
_symmetry_cell_setting           cubic
_symmetry_Int_Tables_number      227
_symmetry_space_group_name_Hall  '-F 4vw 2vw 3'
_symmetry_space_group_name_H-M   'F d -3 m :2'
_cell_angle_alpha                90
_cell_angle_beta                 90
_cell_angle_gamma                90
_cell_formula_units_Z            8
_cell_length_a                   8.35049(6)
_cell_length_b                   8.35049(6)
_cell_length_c                   8.35049(6)
_cell_measurement_temperature    293
_cell_volume                     582.285(7)
_diffrn_ambient_temperature      293
_diffrn_radiation_probe          neutron
_diffrn_radiation_wavelength     1.2252
_exptl_absorpt_coefficient_mu    0.005
_exptl_crystal_density_diffrn    6.114
_exptl_crystal_F_000             992
_pd_instr_location               ' ?'
_pd_meas_2theta_range_inc        0.05
_pd_meas_2theta_range_max        121.050
_pd_meas_2theta_range_min        4.500
_pd_meas_number_of_points        2332
_pd_proc_2theta_range_inc        0.05
_pd_proc_2theta_range_max        121.05
_pd_proc_2theta_range_min        7.05
_pd_proc_ls_background_function  '9 Legendre polynoms'
_pd_proc_ls_pref_orient_corr     none
_pd_proc_ls_profile_function     Pseudo-Voigt
_pd_proc_ls_prof_R_factor        0.0323
_pd_proc_ls_prof_wR_expected     0.0155
_pd_proc_ls_prof_wR_factor       0.0456
_refine_ls_goodness_of_fit_all   2.94
_refine_ls_number_constraints    0
_refine_ls_number_parameters     24
_refine_ls_number_restraints     0
_refine_ls_R_factor_all          0.0108
_refine_ls_R_factor_gt           0.0108
_refine_ls_shift/su_max          0.0452
_refine_ls_shift/su_mean         0.0052
_refine_ls_weighting_scheme      sigma
_refine_ls_wR_factor_all         0.0185
_refine_ls_wR_factor_gt          0.0185
_cod_data_source_file            cm304101n_si_004.cif
_cod_data_source_block           I
_cod_original_sg_symbol_Hall     '-F 4abvw;2abvw;3'
_cod_original_sg_symbol_H-M      'F d -3 m'
_cod_original_formula_sum        'Ga1 Ge0.5 O4 Zn1.5'
_cod_database_code               4001770
loop_
_symmetry_equiv_pos_site_id
_symmetry_equiv_pos_as_xyz
1 x,y,z
2 -x+3/4,-y+1/4,z+1/2
3 -x+1/4,y+1/2,-z+3/4
4 x+1/2,-y+3/4,-z+1/4
5 z,x,y
6 z+1/2,-x+3/4,-y+1/4
7 -z+3/4,-x+1/4,y+1/2
8 -z+1/4,x+1/2,-y+3/4
9 y,z,x
10 -y+1/4,z+1/2,-x+3/4
11 y+1/2,-z+3/4,-x+1/4
12 -y+3/4,-z+1/4,x+1/2
13 y+3/4,x+1/4,-z+1/2
14 -y,-x,-z
15 y+1/4,-x+1/2,z+3/4
16 -y+1/2,x+3/4,z+1/4
17 x+3/4,z+1/4,-y+1/2
18 -x+1/2,z+3/4,y+1/4
19 -x,-z,-y
20 x+1/4,-z+1/2,y+3/4
21 z+3/4,y+1/4,-x+1/2
22 z+1/4,-y+1/2,x+3/4
23 -z+1/2,y+3/4,x+1/4
24 -z,-y,-x
25 -x,-y,-z
26 x+1/4,y+3/4,-z+1/2
27 x+3/4,-y+1/2,z+1/4
28 -x+1/2,y+1/4,z+3/4
29 -z,-x,-y
30 -z+1/2,x+1/4,y+3/4
31 z+1/4,x+3/4,-y+1/2
32 z+3/4,-x+1/2,y+1/4
33 -y,-z,-x
34 y+3/4,-z+1/2,x+1/4
35 -y+1/2,z+1/4,x+3/4
36 y+1/4,z+3/4,-x+1/2
37 -y+1/4,-x+3/4,z+1/2
38 y,x,z
39 -y+3/4,x+1/2,-z+1/4
40 y+1/2,-x+1/4,-z+3/4
41 -x+1/4,-z+3/4,y+1/2
42 x+1/2,-z+1/4,-y+3/4
43 x,z,y
44 -x+3/4,z+1/2,-y+1/4
45 -z+1/4,-y+3/4,x+1/2
46 -z+3/4,y+1/2,-x+1/4
47 z+1/2,-y+1/4,-x+3/4
48 z,y,x
49 x,y+1/2,z+1/2
50 -x+3/4,-y+3/4,z
51 -x+1/4,y,-z+1/4
52 x+1/2,-y+1/4,-z+3/4
53 z,x+1/2,y+1/2
54 z+1/2,-x+1/4,-y+3/4
55 -z+3/4,-x+3/4,y
56 -z+1/4,x,-y+1/4
57 y,z+1/2,x+1/2
58 -y+1/4,z,-x+1/4
59 y+1/2,-z+1/4,-x+3/4
60 -y+3/4,-z+3/4,x
61 y+3/4,x+3/4,-z
62 -y,-x+1/2,-z+1/2
63 y+1/4,-x,z+1/4
64 -y+1/2,x+1/4,z+3/4
65 x+3/4,z+3/4,-y
66 -x+1/2,z+1/4,y+3/4
67 -x,-z+1/2,-y+1/2
68 x+1/4,-z,y+1/4
69 z+3/4,y+3/4,-x
70 z+1/4,-y,x+1/4
71 -z+1/2,y+1/4,x+3/4
72 -z,-y+1/2,-x+1/2
73 -x,-y+1/2,-z+1/2
74 x+1/4,y+1/4,-z
75 x+3/4,-y,z+3/4
76 -x+1/2,y+3/4,z+1/4
77 -z,-x+1/2,-y+1/2
78 -z+1/2,x+3/4,y+1/4
79 z+1/4,x+1/4,-y
80 z+3/4,-x,y+3/4
81 -y,-z+1/2,-x+1/2
82 y+3/4,-z,x+3/4
83 -y+1/2,z+3/4,x+1/4
84 y+1/4,z+1/4,-x
85 -y+1/4,-x+1/4,z
86 y,x+1/2,z+1/2
87 -y+3/4,x,-z+3/4
88 y+1/2,-x+3/4,-z+1/4
89 -x+1/4,-z+1/4,y
90 x+1/2,-z+3/4,-y+1/4
91 x,z+1/2,y+1/2
92 -x+3/4,z,-y+3/4
93 -z+1/4,-y+1/4,x
94 -z+3/4,y,-x+3/4
95 z+1/2,-y+3/4,-x+1/4
96 z,y+1/2,x+1/2
97 x+1/2,y,z+1/2
98 -x+1/4,-y+1/4,z
99 -x+3/4,y+1/2,-z+1/4
100 x,-y+3/4,-z+3/4
101 z+1/2,x,y+1/2
102 z,-x+3/4,-y+3/4
103 -z+1/4,-x+1/4,y
104 -z+3/4,x+1/2,-y+1/4
105 y+1/2,z,x+1/2
106 -y+3/4,z+1/2,-x+1/4
107 y,-z+3/4,-x+3/4
108 -y+1/4,-z+1/4,x
109 y+1/4,x+1/4,-z
110 -y+1/2,-x,-z+1/2
111 y+3/4,-x+1/2,z+1/4
112 -y,x+3/4,z+3/4
113 x+1/4,z+1/4,-y
114 -x,z+3/4,y+3/4
115 -x+1/2,-z,-y+1/2
116 x+3/4,-z+1/2,y+1/4
117 z+1/4,y+1/4,-x
118 z+3/4,-y+1/2,x+1/4
119 -z,y+3/4,x+3/4
120 -z+1/2,-y,-x+1/2
121 -x+1/2,-y,-z+1/2
122 x+3/4,y+3/4,-z
123 x+1/4,-y+1/2,z+3/4
124 -x,y+1/4,z+1/4
125 -z+1/2,-x,-y+1/2
126 -z,x+1/4,y+1/4
127 z+3/4,x+3/4,-y
128 z+1/4,-x+1/2,y+3/4
129 -y+1/2,-z,-x+1/2
130 y+1/4,-z+1/2,x+3/4
131 -y,z+1/4,x+1/4
132 y+3/4,z+3/4,-x
133 -y+3/4,-x+3/4,z
134 y+1/2,x,z+1/2
135 -y+1/4,x+1/2,-z+3/4
136 y,-x+1/4,-z+1/4
137 -x+3/4,-z+3/4,y
138 x,-z+1/4,-y+1/4
139 x+1/2,z,y+1/2
140 -x+1/4,z+1/2,-y+3/4
141 -z+3/4,-y+3/4,x
142 -z+1/4,y+1/2,-x+3/4
143 z,-y+1/4,-x+1/4
144 z+1/2,y,x+1/2
145 x+1/2,y+1/2,z
146 -x+1/4,-y+3/4,z+1/2
147 -x+3/4,y,-z+3/4
148 x,-y+1/4,-z+1/4
149 z+1/2,x+1/2,y
150 z,-x+1/4,-y+1/4
151 -z+1/4,-x+3/4,y+1/2
152 -z+3/4,x,-y+3/4
153 y+1/2,z+1/2,x
154 -y+3/4,z,-x+3/4
155 y,-z+1/4,-x+1/4
156 -y+1/4,-z+3/4,x+1/2
157 y+1/4,x+3/4,-z+1/2
158 -y+1/2,-x+1/2,-z
159 y+3/4,-x,z+3/4
160 -y,x+1/4,z+1/4
161 x+1/4,z+3/4,-y+1/2
162 -x,z+1/4,y+1/4
163 -x+1/2,-z+1/2,-y
164 x+3/4,-z,y+3/4
165 z+1/4,y+3/4,-x+1/2
166 z+3/4,-y,x+3/4
167 -z,y+1/4,x+1/4
168 -z+1/2,-y+1/2,-x
169 -x+1/2,-y+1/2,-z
170 x+3/4,y+1/4,-z+1/2
171 x+1/4,-y,z+1/4
172 -x,y+3/4,z+3/4
173 -z+1/2,-x+1/2,-y
174 -z,x+3/4,y+3/4
175 z+3/4,x+1/4,-y+1/2
176 z+1/4,-x,y+1/4
177 -y+1/2,-z+1/2,-x
178 y+1/4,-z,x+1/4
179 -y,z+3/4,x+3/4
180 y+3/4,z+1/4,-x+1/2
181 -y+3/4,-x+1/4,z+1/2
182 y+1/2,x+1/2,z
183 -y+1/4,x,-z+1/4
184 y,-x+3/4,-z+3/4
185 -x+3/4,-z+1/4,y+1/2
186 x,-z+3/4,-y+3/4
187 x+1/2,z+1/2,y
188 -x+1/4,z,-y+1/4
189 -z+3/4,-y+1/4,x+1/2
190 -z+1/4,y,-x+1/4
191 z,-y+3/4,-x+3/4
192 z+1/2,y+1/2,x
loop_
_atom_site_label
_atom_site_type_symbol
_atom_site_fract_x
_atom_site_fract_y
_atom_site_fract_z
_atom_site_adp_type
_atom_site_U_iso_or_equiv
_atom_site_symmetry_multiplicity
_atom_site_occupancy
_atom_site_calc_flag
Zn1 Zn 0.125 0.125 0.125 Uani 0.00480(14) 8 0.966(7) d
Ga1 Ga 0.125 0.125 0.125 Uani 0.00480(14) 8 0.028 d
Ge1 Ge 0.125 0.125 0.125 Uani 0.00480(14) 8 0.006(7) d
Zn2 Zn 0.5 0.5 0.5 Uani 0.00325(9) 16 0.267(4) d
Ga2 Ga 0.5 0.5 0.5 Uani 0.00325(9) 16 0.486 d
Ge2 Ge 0.5 0.5 0.5 Uani 0.00325(9) 16 0.247(4) d
O O 0.26173(4) 0.26173(4) 0.26173(4) Uani 0.00844(8) 32 1 d
loop_
_atom_site_aniso_label
_atom_site_aniso_type_symbol
_atom_site_aniso_U_11
_atom_site_aniso_U_22
_atom_site_aniso_U_33
_atom_site_aniso_U_12
_atom_site_aniso_U_13
_atom_site_aniso_U_23
Zn1 Zn 0.0048(2) 0.0048(2) 0.0048(2) 0 0 0
Ga1 Ga 0.0048(2) 0.0048(2) 0.0048(2) 0 0 0
Ge1 Ge 0.0048(2) 0.0048(2) 0.0048(2) 0 0 0
Zn2 Zn 0.00325(16) 0.00325(16) 0.00325(16) -0.00086(12) -0.00086(12)
-0.00086(12)
Ga2 Ga 0.00325(16) 0.00325(16) 0.00325(16) -0.00086(12) -0.00086(12)
-0.00086(12)
Ge2 Ge 0.00325(16) 0.00325(16) 0.00325(16) -0.00086(12) -0.00086(12)
-0.00086(12)
O O 0.00844(14) 0.00844(14) 0.00844(14) -0.00195(12) -0.00195(12) -0.00195(12)
loop_
_atom_type_symbol
_atom_type_scat_length_neutron
_atom_type_scat_source
Zn 5.680 International_Tables_Vol_C
Ga 7.288 International_Tables_Vol_C
Ge 8.185 International_Tables_Vol_C
O 5.803 International_Tables_Vol_C
loop_
_pd_proc_point_id
_pd_proc_2theta_corrected
_pd_proc_intensity_net
_pd_calc_intensity_net
_pd_proc_ls_weight
1 7.0200 492.00 463.00 10.00
2 7.0700 470.00 461.62 10.00
3 7.1200 468.00 460.29 10.00
4 7.1700 452.00 458.98 9.00
5 7.2200 463.00 457.71 10.00
6 7.2700 449.00 456.47 9.00
7 7.3200 459.00 455.26 10.00
8 7.3700 463.00 454.08 10.00
9 7.4200 449.00 452.93 9.00
10 7.4700 463.00 451.80 10.00
11 7.5200 443.00 450.70 9.00
12 7.5700 447.00 449.63 9.00
13 7.6200 448.00 448.59 9.00
14 7.6700 452.00 447.57 9.00
15 7.7200 435.00 446.57 9.00
16 7.7700 444.00 445.60 9.00
17 7.8200 446.00 444.65 9.00
18 7.8700 430.00 443.72 9.00
19 7.9200 457.00 442.81 10.00
20 7.9700 442.00 441.93 9.00
21 8.0200 431.00 441.06 9.00
22 8.0700 423.00 440.21 9.00
23 8.1200 435.00 439.39 9.00
24 8.1700 433.00 438.58 9.00
25 8.2200 440.00 437.79 9.00
26 8.2700 425.00 437.02 9.00
27 8.3200 442.00 436.27 10.00
28 8.3700 441.00 435.53 10.00
29 8.4200 453.00 434.81 11.00
30 8.4700 449.00 434.10 11.00
31 8.5200 417.00 433.41 10.00
32 8.5700 425.00 432.74 10.00
33 8.6200 439.00 432.08 10.00
34 8.6700 423.00 431.43 10.00
35 8.7200 436.00 430.80 10.00
36 8.7700 444.00 430.18 11.00
37 8.8200 431.00 429.58 10.00
38 8.8700 424.00 428.98 10.00
39 8.9200 429.00 428.40 10.00
40 8.9700 429.00 427.83 10.00
41 9.0200 428.00 427.28 10.00
42 9.0700 430.00 426.73 10.00
43 9.1200 437.00 426.20 10.00
44 9.1700 444.00 425.67 11.00
45 9.2200 428.00 425.16 10.00
46 9.2700 440.00 424.65 10.00
47 9.3200 428.00 424.16 9.00
48 9.3700 424.00 423.68 9.00
49 9.4200 417.00 423.20 9.00
50 9.4700 419.00 422.74 9.00
51 9.5200 433.00 422.28 9.00
52 9.5700 425.00 421.83 9.00
53 9.6200 427.00 421.39 9.00
54 9.6700 425.00 420.96 9.00
55 9.7200 434.00 420.54 9.00
56 9.7700 436.00 420.12 9.00
57 9.8200 431.00 419.71 9.00
58 9.8700 419.00 419.31 9.00
59 9.9200 419.00 418.91 9.00
60 9.9700 419.00 418.52 9.00
61 10.0200 430.00 418.14 9.00
62 10.0700 430.00 417.77 9.00
63 10.1200 415.00 417.40 9.00
64 10.1700 409.00 417.04 9.00
65 10.2200 424.00 416.68 9.00
66 10.2700 422.00 416.33 9.00
67 10.3200 423.00 415.98 9.00
68 10.3700 414.00 415.64 9.00
69 10.4200 412.00 415.31 9.00
70 10.4700 414.00 414.98 9.00
71 10.5200 437.00 414.65 9.00
72 10.5700 422.00 414.33 9.00
73 10.6200 413.00 414.02 9.00
74 10.6700 409.00 413.70 9.00
75 10.7200 409.00 413.40 10.00
76 10.7700 417.00 413.10 10.00
77 10.8200 397.00 412.80 10.00
78 10.8700 402.00 412.50 10.00
79 10.9200 408.00 412.21 10.00
80 10.9700 428.00 411.92 10.00
81 11.0200 401.00 411.64 10.00
82 11.0700 406.00 411.36 10.00
83 11.1200 408.00 411.08 10.00
84 11.1700 431.00 410.81 10.00
85 11.2200 409.00 410.54 10.00
86 11.2700 423.00 410.27 10.00
87 11.3200 415.00 410.01 10.00
88 11.3700 408.00 409.75 10.00
89 11.4200 410.00 409.49 10.00
90 11.4700 402.00 409.24 10.00
91 11.5200 421.00 408.98 10.00
92 11.5700 400.00 408.73 10.00
93 11.6200 414.00 408.49 10.00
94 11.6700 399.00 408.24 10.00
95 11.7200 412.00 408.81 9.00
96 11.7700 413.00 408.60 9.00
97 11.8200 387.00 408.40 9.00
98 11.8700 396.00 408.20 9.00
99 11.9200 416.00 408.00 9.00
100 11.9700 408.00 407.81 9.00
101 12.0200 405.00 407.62 9.00
102 12.0700 396.00 407.44 9.00
103 12.1200 410.00 407.26 9.00
104 12.1700 391.00 407.09 9.00
105 12.2200 410.00 406.93 9.00
106 12.2700 407.00 406.77 9.00
107 12.3200 407.00 406.61 9.00
108 12.3700 389.00 406.47 9.00
109 12.4200 407.00 406.33 9.00
110 12.4700 401.00 406.20 9.00
111 12.5200 400.00 406.08 9.00
112 12.5700 397.00 405.96 9.00
113 12.6200 396.00 405.86 9.00
114 12.6700 396.00 405.77 9.00
115 12.7200 395.00 405.70 9.00
116 12.7700 389.00 405.64 9.00
117 12.8200 396.00 405.60 9.00
118 12.8700 396.00 405.58 9.00
119 12.9200 398.00 405.59 9.00
120 12.9700 383.00 405.63 9.00
121 13.0200 399.00 405.74 9.00
122 13.0700 404.00 405.97 9.00
123 13.1200 409.00 406.43 10.00
124 13.1700 413.00 407.30 10.00
125 13.2200 393.00 408.94 10.00
126 13.2700 393.00 411.80 10.00
127 13.3200 401.00 416.52 10.00
128 13.3700 412.00 423.80 10.00
129 13.4200 409.00 434.30 10.00
130 13.4700 427.00 448.54 10.00
131 13.5200 430.00 466.79 10.00
132 13.5700 456.00 489.09 11.00
133 13.6200 451.00 515.32 11.00
134 13.6700 453.00 545.36 11.00
135 13.7200 482.00 579.18 11.00
136 13.7700 521.00 616.94 11.00
137 13.8200 549.00 659.06 12.00
138 13.8700 585.00 706.20 12.00
139 13.9200 648.00 759.39 13.00
140 13.9700 735.00 820.14 14.00
141 14.0200 805.00 890.58 14.00
142 14.0700 899.00 973.82 15.00
143 14.1200 1020.00 1074.20 14.00
144 14.1700 1195.00 1197.18 15.00
145 14.2200 1400.00 1348.36 17.00
146 14.2700 1637.00 1530.85 18.00
147 14.3200 1923.00 1740.71 20.00
148 14.3700 2152.00 1961.83 21.00
149 14.4200 2320.00 2163.17 22.00
150 14.4700 2478.00 2302.09 22.00
151 14.5200 2400.00 2335.78 22.00
152 14.5700 2274.00 2237.87 21.00
153 14.6200 2010.00 2013.59 20.00
154 14.6700 1737.00 1702.92 19.00
155 14.7200 1436.00 1365.16 17.00
156 14.7700 1106.00 1055.33 15.00
157 14.8200 812.00 808.15 13.00
158 14.8700 633.00 634.04 11.00
159 14.9200 518.00 524.74 10.00
160 14.9700 446.00 463.05 9.00
161 15.0200 423.00 431.33 9.00
162 15.0700 410.00 416.12 9.00
163 15.1200 404.00 408.98 9.00
164 15.1700 396.00 405.42 9.00
165 15.2200 404.00 403.36 9.00
166 15.2700 396.00 401.92 9.00
167 15.3200 384.00 400.79 9.00
168 15.3700 409.00 399.83 9.00
169 15.4200 409.00 399.00 9.00
170 15.4700 410.00 398.26 10.00
171 15.5200 402.00 397.60 10.00
172 15.5700 406.00 397.01 10.00
173 15.6200 390.00 396.46 10.00
174 15.6700 408.00 395.96 10.00
175 15.7200 403.00 395.50 10.00
176 15.7700 392.00 395.07 10.00
177 15.8200 411.00 394.66 10.00
178 15.8700 419.00 394.28 10.00
179 15.9200 425.00 393.92 10.00
180 15.9700 395.00 393.58 10.00
181 16.0200 391.00 393.25 10.00
182 16.0700 391.00 392.94 10.00
183 16.1200 404.00 392.63 10.00
184 16.1700 390.00 392.34 10.00
185 16.2200 414.00 392.06 10.00
186 16.2700 380.00 391.79 10.00
187 16.3200 414.00 391.52 10.00
188 16.3700 402.00 391.27 10.00
189 16.4200 381.00 391.01 10.00
190 16.4700 397.00 390.77 10.00
191 16.5200 410.00 390.52 9.00
192 16.5700 406.00 390.29 9.00
193 16.6200 424.00 390.05 9.00
194 16.6700 417.00 389.83 9.00
195 16.7200 391.00 389.60 9.00
196 16.7700 406.00 389.38 9.00
197 16.8200 411.00 389.16 9.00
198 16.8700 394.00 388.94 9.00
199 16.9200 411.00 388.73 9.00
200 16.9700 397.00 388.52 9.00
201 17.0200 401.00 388.31 9.00
202 17.0700 401.00 388.10 9.00
203 17.1200 404.00 387.90 9.00
204 17.1700 396.00 387.70 9.00
205 17.2200 414.00 387.49 9.00
206 17.2700 415.00 387.29 9.00
207 17.3200 394.00 387.10 9.00
208 17.3700 391.00 386.90 9.00
209 17.4200 383.00 386.70 9.00
210 17.4700 397.00 386.51 9.00
211 17.5200 402.00 385.73 9.00
212 17.5700 403.00 385.56 9.00
213 17.6200 390.00 385.39 9.00
214 17.6700 370.00 385.21 9.00
215 17.7200 399.00 385.04 9.00
216 17.7700 397.00 384.87 9.00
217 17.8200 388.00 384.70 9.00
218 17.8700 389.00 384.53 10.00
219 17.9200 409.00 384.36 10.00
220 17.9700 385.00 384.19 10.00
221 18.0200 390.00 384.02 10.00
222 18.0700 401.00 383.85 10.00
223 18.1200 413.00 383.68 10.00
224 18.1700 394.00 383.51 10.00
225 18.2200 398.00 383.34 10.00
226 18.2700 409.00 383.17 10.00
227 18.3200 394.00 383.01 10.00
228 18.3700 392.00 382.84 10.00
229 18.4200 386.00 382.67 10.00
230 18.4700 377.00 382.51 10.00
231 18.5200 378.00 382.34 10.00
232 18.5700 404.00 382.17 10.00
233 18.6200 394.00 382.01 10.00
234 18.6700 409.00 381.84 10.00
235 18.7200 403.00 381.68 10.00
236 18.7700 384.00 381.51 10.00
237 18.8200 375.00 381.35 10.00
238 18.8700 389.00 381.19 10.00
239 18.9200 382.00 381.02 9.00
240 18.9700 396.00 380.86 9.00
241 19.0200 376.00 380.70 9.00
242 19.0700 386.00 380.54 9.00
243 19.1200 379.00 380.38 9.00
244 19.1700 391.00 380.22 9.00
245 19.2200 392.00 380.06 9.00
246 19.2700 384.00 379.90 9.00
247 19.3200 405.00 379.74 9.00
248 19.3700 404.00 379.58 9.00
249 19.4200 393.00 379.42 9.00
250 19.4700 383.00 379.27 9.00
251 19.5200 391.00 379.11 9.00
252 19.5700 399.00 378.95 9.00
253 19.6200 401.00 378.80 9.00
254 19.6700 392.00 378.64 9.00
255 19.7200 411.00 378.49 9.00
256 19.7700 394.00 378.34 9.00
257 19.8200 411.00 378.18 9.00
258 19.8700 399.00 378.03 9.00
259 19.9200 392.00 377.88 9.00
260 19.9700 392.00 377.73 9.00
261 20.0200 395.00 377.58 9.00
262 20.0700 395.00 377.43 9.00
263 20.1200 387.00 377.28 9.00
264 20.1700 374.00 377.13 9.00
265 20.2200 389.00 376.98 9.00
266 20.2700 384.00 376.83 10.00
267 20.3200 389.00 376.69 10.00
268 20.3700 383.00 376.54 10.00
269 20.4200 387.00 376.39 10.00
270 20.4700 397.00 376.25 10.00
271 20.5200 383.00 376.11 10.00
272 20.5700 378.00 375.96 10.00
273 20.6200 371.00 375.82 10.00
274 20.6700 365.00 375.68 10.00
275 20.7200 370.00 375.54 10.00
276 20.7700 371.00 375.39 10.00
277 20.8200 372.00 375.26 10.00
278 20.8700 393.00 375.12 10.00
279 20.9200 376.00 374.98 10.00
280 20.9700 378.00 374.84 10.00
281 21.0200 384.00 374.70 10.00
282 21.0700 375.00 374.57 10.00
283 21.1200 393.00 374.43 10.00
284 21.1700 392.00 374.30 10.00
285 21.2200 384.00 374.16 10.00
286 21.2700 380.00 374.03 9.00
287 21.3200 375.00 374.61 9.00
288 21.3700 376.00 374.51 9.00
289 21.4200 364.00 374.40 8.00
290 21.4700 380.00 374.31 9.00
291 21.5200 380.00 374.21 9.00
292 21.5700 368.00 374.12 9.00
293 21.6200 378.00 374.04 9.00
294 21.6700 369.00 373.95 9.00
295 21.7200 376.00 373.87 9.00
296 21.7700 383.00 373.80 9.00
297 21.8200 379.00 373.73 9.00
298 21.8700 362.00 373.66 8.00
299 21.9200 377.00 373.60 9.00
300 21.9700 376.00 373.55 9.00
301 22.0200 365.00 373.50 9.00
302 22.0700 356.00 373.46 8.00
303 22.1200 375.00 373.43 9.00
304 22.1700 370.00 373.40 9.00
305 22.2200 380.00 373.39 9.00
306 22.2700 359.00 373.39 8.00
307 22.3200 375.00 373.40 9.00
308 22.3700 368.00 373.43 9.00
309 22.4200 361.00 373.47 8.00
310 22.4700 373.00 373.53 9.00
311 22.5200 365.00 373.61 9.00
312 22.5700 375.00 373.72 9.00
313 22.6200 365.00 373.86 9.00
314 22.6700 372.00 374.03 10.00
315 22.7200 368.00 374.25 10.00
316 22.7700 372.00 374.52 10.00
317 22.8200 359.00 374.86 9.00
318 22.8700 365.00 375.31 10.00
319 22.9200 367.00 375.94 10.00
320 22.9700 378.00 376.93 10.00
321 23.0200 371.00 378.65 10.00
322 23.0700 378.00 381.77 10.00
323 23.1200 382.00 387.42 10.00
324 23.1700 377.00 397.22 10.00
325 23.2200 381.00 413.23 10.00
326 23.2700 387.00 437.70 10.00
327 23.3200 430.00 472.85 10.00
328 23.3700 474.00 520.70 11.00
329 23.4200 500.00 583.39 11.00
330 23.4700 581.00 663.84 12.00
331 23.5200 688.00 766.55 13.00
332 23.5700 828.00 897.85 14.00
333 23.6200 1049.00 1064.37 16.00
334 23.6700 1285.00 1268.81 18.00
335 23.7200 1507.00 1502.56 17.00
336 23.7700 1762.00 1738.73 19.00
337 23.8200 1956.00 1931.15 20.00
338 23.8700 2036.00 2025.09 20.00
339 23.9200 2005.00 1979.05 20.00
340 23.9700 1825.00 1789.28 19.00
341 24.0200 1530.00 1499.37 17.00
342 24.0700 1230.00 1179.70 16.00
343 24.1200 966.00 893.59 14.00
344 24.1700 726.00 676.63 12.00
345 24.2200 569.00 534.46 11.00
346 24.2700 467.00 452.89 10.00
347 24.3200 428.00 411.31 9.00
348 24.3700 419.00 391.99 9.00
349 24.4200 420.00 383.38 9.00
350 24.4700 407.00 379.34 9.00
351 24.5200 390.00 377.11 9.00
352 24.5700 383.00 375.62 9.00
353 24.6200 385.00 374.47 9.00
354 24.6700 377.00 373.54 9.00
355 24.7200 372.00 372.75 9.00
356 24.7700 378.00 372.07 9.00
357 24.8200 375.00 371.49 9.00
358 24.8700 390.00 370.98 9.00
359 24.9200 379.00 370.54 9.00
360 24.9700 361.00 370.14 8.00
361 25.0200 369.00 369.79 9.00
362 25.0700 379.00 369.47 10.00
363 25.1200 365.00 369.18 10.00
364 25.1700 382.00 368.92 10.00
365 25.2200 373.00 368.68 10.00
366 25.2700 368.00 368.46 10.00
367 25.3200 368.00 368.26 10.00
368 25.3700 364.00 368.07 10.00
369 25.4200 364.00 367.90 10.00
370 25.4700 351.00 367.74 9.00
371 25.5200 379.00 367.59 10.00
372 25.5700 365.00 367.44 10.00
373 25.6200 373.00 370.64 10.00
374 25.6700 352.00 370.65 9.00
375 25.7200 346.00 370.68 9.00
376 25.7700 361.00 370.73 9.00
377 25.8200 355.00 370.80 9.00
378 25.8700 351.00 370.88 9.00
379 25.9200 350.00 370.98 9.00
380 25.9700 354.00 371.10 9.00
381 26.0200 362.00 371.24 9.00
382 26.0700 364.00 371.40 10.00
383 26.1200 367.00 371.58 9.00
384 26.1700 375.00 371.79 9.00
385 26.2200 383.00 372.02 9.00
386 26.2700 374.00 372.28 9.00
387 26.3200 376.00 372.58 9.00
388 26.3700 363.00 372.91 8.00
389 26.4200 381.00 373.28 9.00
390 26.4700 381.00 373.69 9.00
391 26.5200 361.00 374.16 8.00
392 26.5700 371.00 374.68 9.00
393 26.6200 373.00 374.68 9.00
394 26.6700 353.00 375.36 8.00
395 26.7200 367.00 376.12 9.00
396 26.7700 365.00 376.97 9.00
397 26.8200 361.00 377.94 8.00
398 26.8700 348.00 379.03 8.00
399 26.9200 379.00 380.28 9.00
400 26.9700 372.00 382.36 9.00
401 27.0200 361.00 384.04 8.00
402 27.0700 366.00 386.00 9.00
403 27.1200 386.00 388.30 9.00
404 27.1700 375.00 391.07 9.00
405 27.2200 376.00 394.56 9.00
406 27.2700 369.00 399.36 9.00
407 27.3200 394.00 406.80 9.00
408 27.3700 389.00 419.66 9.00
409 27.4200 416.00 443.21 9.00
410 27.4700 431.00 486.11 10.00
411 27.5200 468.00 560.92 11.00
412 27.5700 559.00 683.65 12.00
413 27.6200 690.00 872.55 13.00
414 27.6700 939.00 1147.60 15.00
415 27.7200 1224.00 1531.64 17.00
416 27.7700 1782.00 2053.50 21.00
417 27.8200 2556.00 2747.77 25.00
418 27.8700 3575.00 3642.48 30.00
419 27.9200 4897.00 4728.43 35.00
420 27.9700 6274.00 5915.34 40.00
421 28.0200 7391.00 7004.17 43.00
422 28.0700 7929.00 7714.23 45.00
423 28.1200 7901.00 7782.16 44.00
424 28.1700 7174.00 7105.19 42.00
425 28.2200 5973.00 5839.94 39.00
426 28.2700 4608.00 4335.47 34.00
427 28.3200 3275.00 2941.22 29.00
428 28.3700 2184.00 1869.53 23.00
429 28.4200 1327.00 1168.23 18.00
430 28.4700 846.00 771.42 15.00
431 28.5200 586.00 574.08 11.00
432 28.5700 465.00 485.52 10.00
433 28.6200 447.00 447.96 9.00
434 28.6700 419.00 432.10 9.00
435 28.7200 420.00 426.14 9.00
436 28.7700 407.00 426.95 9.00
437 28.8200 407.00 435.34 9.00
438 28.8700 431.00 453.99 9.00
439 28.9200 456.00 486.56 10.00
440 28.9700 499.00 537.30 10.00
441 29.0200 553.00 611.23 10.00
442 29.0700 676.00 714.53 12.00
443 29.1200 842.00 853.89 13.00
444 29.1700 1040.00 1033.24 14.00
445 29.2200 1285.00 1246.57 16.00
446 29.2700 1548.00 1469.63 18.00
447 29.3200 1707.00 1657.11 18.00
448 29.3700 1771.00 1752.91 19.00
449 29.4200 1735.00 1713.98 19.00
450 29.4700 1528.00 1538.31 17.00
451 29.5200 1286.00 1274.27 16.00
452 29.5700 981.00 993.76 14.00
453 29.6200 781.00 755.04 12.00
454 29.6700 610.00 584.90 11.00
455 29.7200 546.00 481.21 10.00
456 29.7700 492.00 426.23 10.00
457 29.8200 494.00 400.24 10.00
458 29.8700 494.00 388.75 11.00
459 29.9200 532.00 383.53 12.00
460 29.9700 555.00 380.78 12.00
461 30.0200 566.00 378.99 12.00
462 30.0700 538.00 377.64 12.00
463 30.1200 525.00 376.55 11.00
464 30.1700 487.00 375.64 11.00
465 30.2200 469.00 374.86 11.00
466 30.2700 441.00 374.20 10.00
467 30.3200 421.00 373.63 10.00
468 30.3700 396.00 373.13 10.00
469 30.4200 372.00 372.70 10.00
470 30.4700 362.00 372.32 9.00
471 30.5200 365.00 371.98 10.00
472 30.5700 359.00 371.68 9.00
473 30.6200 358.00 371.42 9.00
474 30.6700 347.00 371.18 9.00
475 30.7200 355.00 368.15 9.00
476 30.7700 373.00 368.07 10.00
477 30.8200 368.00 368.00 10.00
478 30.8700 369.00 367.94 10.00
479 30.9200 356.00 367.90 8.00
480 30.9700 340.00 367.86 8.00
481 31.0200 356.00 367.84 8.00
482 31.0700 354.00 367.82 8.00
483 31.1200 367.00 367.81 9.00
484 31.1700 363.00 367.81 8.00
485 31.2200 355.00 367.81 8.00
486 31.2700 375.00 367.82 9.00
487 31.3200 354.00 367.83 8.00
488 31.3700 366.00 367.84 9.00
489 31.4200 363.00 367.86 8.00
490 31.4700 366.00 367.89 9.00
491 31.5200 362.00 367.92 8.00
492 31.5700 365.00 367.95 9.00
493 31.6200 366.00 367.98 9.00
494 31.6700 367.00 368.02 9.00
495 31.7200 360.00 368.06 8.00
496 31.7700 363.00 374.28 8.00
497 31.8200 359.00 374.61 8.00
498 31.8700 355.00 374.95 8.00
499 31.9200 371.00 375.32 9.00
500 31.9700 359.00 375.18 8.00
501 32.0200 366.00 375.63 9.00
502 32.0700 344.00 376.10 8.00
503 32.1200 352.00 376.61 8.00
504 32.1700 363.00 377.14 8.00
505 32.2200 365.00 377.72 10.00
506 32.2700 359.00 378.35 9.00
507 32.3200 360.00 379.02 9.00
508 32.3700 360.00 379.75 9.00
509 32.4200 351.00 380.53 9.00
510 32.4700 358.00 381.39 9.00
511 32.5200 369.00 382.33 10.00
512 32.5700 373.00 383.35 10.00
513 32.6200 381.00 384.48 10.00
514 32.6700 377.00 385.72 10.00
515 32.7200 371.00 387.09 10.00
516 32.7700 388.00 388.62 10.00
517 32.8200 396.00 390.34 10.00
518 32.8700 374.00 392.26 10.00
519 32.9200 387.00 394.44 10.00
520 32.9700 393.00 396.91 10.00
521 33.0200 399.00 399.74 10.00
522 33.0700 400.00 403.01 10.00
523 33.1200 402.00 406.81 10.00
524 33.1700 405.00 411.27 10.00
525 33.2200 416.00 416.58 10.00
526 33.2700 411.00 423.05 10.00
527 33.3200 431.00 431.31 9.00
528 33.3700 426.00 442.88 9.00
529 33.4200 435.00 461.37 9.00
530 33.4700 450.00 494.75 9.00
531 33.5200 502.00 558.68 10.00
532 33.5700 587.00 680.17 11.00
533 33.6200 776.00 900.18 12.00
534 33.6700 1076.00 1274.36 15.00
535 33.7200 1630.00 1872.53 18.00
536 33.7700 2540.00 2775.97 23.00
537 33.8200 4010.00 4066.62 28.00
538 33.8700 5920.00 5790.22 34.00
539 33.9200 8293.00 7877.46 41.00
540 33.9700 10508.00 10053.90 46.00
541 34.0200 12194.00 11819.20 49.00
542 34.0700 12474.00 12581.60 50.00
543 34.1200 11554.00 11948.60 48.00
544 34.1700 9517.00 10033.30 44.00
545 34.2200 7278.00 7457.43 38.00
546 34.2700 4936.00 4953.98 31.00
547 34.3200 3086.00 3003.83 25.00
548 34.3700 1799.00 1739.30 19.00
549 34.4200 1071.00 1042.49 15.00
550 34.4700 718.00 708.71 12.00
551 34.5200 610.00 564.12 11.00
552 34.5700 560.00 502.68 11.00
553 34.6200 524.00 473.47 10.00
554 34.6700 533.00 456.29 12.00
555 34.7200 510.00 444.15 11.00
556 34.7700 549.00 434.74 12.00
557 34.8200 515.00 427.14 11.00
558 34.8700 516.00 420.90 11.00
559 34.9200 510.00 415.71 11.00
560 34.9700 474.00 411.38 11.00
561 35.0200 465.00 407.69 11.00
562 35.0700 453.00 404.54 11.00
563 35.1200 433.00 401.84 10.00
564 35.1700 393.00 399.50 10.00
565 35.2200 400.00 397.47 10.00
566 35.2700 377.00 395.70 10.00
567 35.3200 376.00 394.15 10.00
568 35.3700 402.00 392.78 10.00
569 35.4200 387.00 391.58 10.00
570 35.4700 381.00 390.51 10.00
571 35.5200 383.00 389.56 10.00
572 35.5700 372.00 388.71 10.00
573 35.6200 367.00 387.95 10.00
574 35.6700 377.00 387.28 10.00
575 35.7200 389.00 386.68 9.00
576 35.7700 373.00 386.14 9.00
577 35.8200 376.00 385.65 9.00
578 35.8700 369.00 385.22 9.00
579 35.9200 363.00 384.83 8.00
580 35.9700 376.00 384.48 9.00
581 36.0200 372.00 384.17 9.00
582 36.0700 365.00 383.89 9.00
583 36.1200 377.00 383.64 9.00
584 36.1700 371.00 383.42 9.00
585 36.2200 366.00 383.23 9.00
586 36.2700 371.00 383.06 9.00
587 36.3200 369.00 382.91 9.00
588 36.3700 361.00 382.78 8.00
589 36.4200 368.00 382.68 9.00
590 36.4700 381.00 382.59 9.00
591 36.5200 360.00 382.53 8.00
592 36.5700 358.00 377.41 8.00
593 36.6200 374.00 377.60 9.00
594 36.6700 372.00 377.84 9.00
595 36.7200 358.00 378.19 8.00
596 36.7700 365.00 378.76 9.00
597 36.8200 371.00 379.72 9.00
598 36.8700 373.00 381.37 9.00
599 36.9200 370.00 384.05 9.00
600 36.9700 373.00 388.20 9.00
601 37.0200 399.00 394.18 9.00
602 37.0700 392.00 402.06 10.00
603 37.1200 397.00 411.20 10.00
604 37.1700 410.00 419.89 10.00
605 37.2200 419.00 425.61 10.00
606 37.2700 410.00 426.01 10.00
607 37.3200 398.00 420.44 10.00
608 37.3700 411.00 410.83 10.00
609 37.4200 398.00 400.43 10.00
610 37.4700 386.00 391.82 10.00
611 37.5200 388.00 386.05 10.00
612 37.5700 391.00 382.83 10.00
613 37.6200 386.00 381.34 10.00
614 37.6700 383.00 380.77 10.00
615 37.7200 392.00 380.60 10.00
616 37.7700 381.00 380.60 10.00
617 37.8200 364.00 380.65 10.00
618 37.8700 380.00 380.73 10.00
619 37.9200 382.00 380.82 10.00
620 37.9700 388.00 380.91 10.00
621 38.0200 391.00 381.02 10.00
622 38.0700 371.00 381.12 10.00
623 38.1200 367.00 381.23 9.00
624 38.1700 377.00 381.35 9.00
625 38.2200 382.00 381.47 9.00
626 38.2700 390.00 381.59 9.00
627 38.3200 376.00 381.71 9.00
628 38.3700 369.00 381.83 9.00
629 38.4200 382.00 381.95 9.00
630 38.4700 369.00 382.08 9.00
631 38.5200 373.00 382.21 9.00
632 38.5700 360.00 382.33 8.00
633 38.6200 359.00 382.46 8.00
634 38.6700 369.00 382.59 9.00
635 38.7200 388.00 382.72 9.00
636 38.7700 372.00 382.85 9.00
637 38.8200 366.00 382.98 9.00
638 38.8700 370.00 383.11 9.00
639 38.9200 392.00 383.23 9.00
640 38.9700 380.00 383.37 9.00
641 39.0200 383.00 383.50 9.00
642 39.0700 388.00 383.63 9.00
643 39.1200 372.00 383.76 9.00
644 39.1700 378.00 383.89 9.00
645 39.2200 373.00 384.02 9.00
646 39.2700 372.00 384.15 9.00
647 39.3200 371.00 384.29 9.00
648 39.3700 375.00 384.42 9.00
649 39.4200 382.00 384.55 9.00
650 39.4700 388.00 384.68 10.00
651 39.5200 393.00 384.82 10.00
652 39.5700 367.00 384.95 10.00
653 39.6200 378.00 385.08 10.00
654 39.6700 375.00 385.19 10.00
655 39.7200 368.00 385.33 10.00
656 39.7700 372.00 385.46 10.00
657 39.8200 364.00 385.60 10.00
658 39.8700 366.00 385.73 10.00
659 39.9200 387.00 386.52 10.00
660 39.9700 383.00 386.68 10.00
661 40.0200 392.00 386.85 10.00
662 40.0700 360.00 387.02 9.00
663 40.1200 382.00 387.19 10.00
664 40.1700 399.00 387.37 10.00
665 40.2200 389.00 387.55 10.00
666 40.2700 385.00 387.73 10.00
667 40.3200 369.00 387.92 10.00
668 40.3700 399.00 388.11 10.00
669 40.4200 381.00 388.31 10.00
670 40.4700 389.00 388.51 10.00
671 40.5200 363.00 388.72 8.00
672 40.5700 372.00 388.94 9.00
673 40.6200 378.00 389.17 9.00
674 40.6700 385.00 389.40 9.00
675 40.7200 382.00 389.65 9.00
676 40.7700 374.00 389.91 9.00
677 40.8200 390.00 390.19 9.00
678 40.8700 377.00 390.49 9.00
679 40.9200 381.00 390.80 9.00
680 40.9700 399.00 391.15 9.00
681 41.0200 369.00 391.52 9.00
682 41.0700 389.00 391.93 9.00
683 41.1200 404.00 392.39 9.00
684 41.1700 389.00 392.90 9.00
685 41.2200 378.00 393.48 9.00
686 41.2700 392.00 394.14 9.00
687 41.3200 400.00 394.91 9.00
688 41.3700 391.00 395.83 9.00
689 41.4200 396.00 396.96 9.00
690 41.4700 405.00 398.44 9.00
691 41.5200 405.00 400.64 9.00
692 41.5700 406.00 404.50 9.00
693 41.6200 394.00 412.11 9.00
694 41.6700 427.00 427.74 9.00
695 41.7200 449.00 458.79 9.00
696 41.7700 514.00 516.45 10.00
697 41.8200 595.00 614.82 11.00
698 41.8700 787.00 766.51 14.00
699 41.9200 1013.00 972.69 16.00
700 41.9700 1263.00 1209.70 18.00
701 42.0200 1502.00 1421.41 19.00
702 42.0700 1543.00 1532.21 20.00
703 42.1200 1505.00 1485.41 19.00
704 42.1700 1269.00 1290.54 18.00
705 42.2200 1014.00 1025.81 16.00
706 42.2700 782.00 778.86 14.00
707 42.3200 589.00 599.37 12.00
708 42.3700 478.00 493.15 11.00
709 42.4200 429.00 440.56 10.00
710 42.4700 401.00 417.94 10.00
711 42.5200 417.00 408.80 10.00
712 42.5700 416.00 404.82 10.00
713 42.6200 405.00 402.67 10.00
714 42.6700 401.00 407.55 10.00
715 42.7200 416.00 406.81 10.00
716 42.7700 393.00 406.33 10.00
717 42.8200 411.00 406.06 10.00
718 42.8700 398.00 405.95 10.00
719 42.9200 415.00 405.98 9.00
720 42.9700 419.00 406.13 9.00
721 43.0200 405.00 406.38 9.00
722 43.0700 408.00 406.73 9.00
723 43.1200 414.00 407.17 9.00
724 43.1700 419.00 407.71 9.00
725 43.2200 423.00 408.34 9.00
726 43.2700 417.00 409.07 9.00
727 43.3200 422.00 409.90 9.00
728 43.3700 415.00 410.84 9.00
729 43.4200 415.00 411.91 9.00
730 43.4700 418.00 413.12 9.00
731 43.5200 408.00 414.48 9.00
732 43.5700 411.00 416.03 9.00
733 43.6200 407.00 417.79 9.00
734 43.6700 436.00 419.79 9.00
735 43.7200 436.00 422.09 9.00
736 43.7700 432.00 424.73 9.00
737 43.8200 438.00 427.80 9.00
738 43.8700 441.00 431.39 9.00
739 43.9200 458.00 435.62 10.00
740 43.9700 462.00 440.65 10.00
741 44.0200 471.00 446.71 10.00
742 44.0700 475.00 454.10 10.00
743 44.1200 519.00 463.33 10.00
744 44.1700 523.00 475.41 10.00
745 44.2200 547.00 492.82 10.00
746 44.2700 561.00 522.16 12.00
747 44.3200 614.00 579.88 12.00
748 44.3700 707.00 701.64 13.00
749 44.4200 957.00 957.89 15.00
750 44.4700 1435.00 1460.96 19.00
751 44.5200 2300.00 2361.14 24.00
752 44.5700 3824.00 3797.14 31.00
753 44.6200 5939.00 5782.40 39.00
754 44.6700 8233.00 8056.06 45.00
755 44.7200 10106.00 10018.60 50.00
756 44.7700 10821.00 10899.00 52.00
757 44.8200 10068.00 10196.00 50.00
758 44.8700 8156.00 8152.20 45.00
759 44.9200 5697.00 5630.23 38.00
760 44.9700 3519.00 3440.91 30.00
761 45.0200 2097.00 1955.66 23.00
762 45.0700 1248.00 1135.89 18.00
763 45.1200 845.00 755.79 15.00
764 45.1700 671.00 599.46 13.00
765 45.2200 624.00 535.61 12.00
766 45.2700 536.00 505.05 12.00
767 45.3200 532.00 486.40 10.00
768 45.3700 526.00 472.96 10.00
769 45.4200 499.00 462.56 10.00
770 45.4700 489.00 454.26 10.00
771 45.5200 483.00 447.54 10.00
772 45.5700 462.00 442.02 10.00
773 45.6200 449.00 437.43 9.00
774 45.6700 455.00 433.59 10.00
775 45.7200 442.00 430.34 9.00
776 45.7700 431.00 427.57 9.00
777 45.8200 447.00 425.20 9.00
778 45.8700 419.00 423.15 9.00
779 45.9200 434.00 421.37 9.00
780 45.9700 423.00 419.82 9.00
781 46.0200 431.00 418.46 9.00
782 46.0700 424.00 417.26 9.00
783 46.1200 410.00 416.20 9.00
784 46.1700 427.00 415.27 9.00
785 46.2200 439.00 414.43 9.00
786 46.2700 418.00 413.69 9.00
787 46.3200 442.00 413.03 9.00
788 46.3700 419.00 412.44 9.00
789 46.4200 410.00 411.91 9.00
790 46.4700 423.00 411.43 9.00
791 46.5200 421.00 411.01 9.00
792 46.5700 434.00 410.62 9.00
793 46.6200 430.00 410.27 9.00
794 46.6700 426.00 409.96 10.00
795 46.7200 419.00 409.68 10.00
796 46.7700 414.00 409.42 10.00
797 46.8200 424.00 409.20 10.00
798 46.8700 419.00 408.99 10.00
799 46.9200 418.00 408.80 10.00
800 46.9700 416.00 425.89 10.00
801 47.0200 404.00 421.19 10.00
802 47.0700 444.00 422.24 11.00
803 47.1200 452.00 423.37 11.00
804 47.1700 432.00 424.58 10.00
805 47.2200 439.00 425.89 10.00
806 47.2700 435.00 427.30 10.00
807 47.3200 413.00 428.83 10.00
808 47.3700 434.00 430.50 10.00
809 47.4200 444.00 432.32 11.00
810 47.4700 426.00 434.31 10.00
811 47.5200 461.00 436.49 11.00
812 47.5700 449.00 438.89 11.00
813 47.6200 477.00 441.55 11.00
814 47.6700 464.00 444.51 11.00
815 47.7200 473.00 447.80 10.00
816 47.7700 469.00 451.50 10.00
817 47.8200 474.00 455.65 10.00
818 47.8700 473.00 460.36 10.00
819 47.9200 453.00 465.72 9.00
820 47.9700 478.00 471.87 10.00
821 48.0200 489.00 478.95 10.00
822 48.0700 477.00 487.20 10.00
823 48.1200 483.00 496.86 10.00
824 48.1700 513.00 508.28 10.00
825 48.2200 506.00 521.94 10.00
826 48.2700 531.00 538.44 10.00
827 48.3200 560.00 558.67 11.00
828 48.3700 558.00 583.92 11.00
829 48.4200 585.00 616.53 11.00
830 48.4700 632.00 661.85 11.00
831 48.5200 740.00 734.51 12.00
832 48.5700 839.00 874.26 13.00
833 48.6200 1153.00 1178.45 15.00
834 48.6700 1775.00 1851.65 19.00
835 48.7200 3218.00 3250.98 25.00
836 48.7700 5988.00 5860.55 35.00
837 48.8200 10415.00 10083.40 46.00
838 48.8700 16352.00 15794.90 57.00
839 48.9200 22406.00 21876.00 67.00
840 48.9700 26328.00 26239.90 73.00
841 49.0200 26172.00 26745.80 72.00
842 49.0700 21992.00 22852.20 74.00
843 49.1200 15854.00 16424.50 63.00
844 49.1700 9898.00 10098.60 50.00
845 49.2200 5442.00 5476.64 37.00
846 49.2700 2822.00 2804.59 27.00
847 49.3200 1602.00 1535.78 20.00
848 49.3700 1085.00 1013.76 16.00
849 49.4200 889.00 807.22 15.00
850 49.4700 802.00 711.72 14.00
851 49.5200 734.00 655.27 14.00
852 49.5700 682.00 615.28 13.00
853 49.6200 631.00 584.64 13.00
854 49.6700 589.00 560.42 12.00
855 49.7200 577.00 540.93 12.00
856 49.7700 567.00 525.03 12.00
857 49.8200 537.00 511.90 12.00
858 49.8700 551.00 500.95 12.00
859 49.9200 546.00 491.74 12.00
860 49.9700 544.00 483.93 12.00
861 50.0200 567.00 477.27 12.00
862 50.0700 568.00 471.56 12.00
863 50.1200 605.00 466.64 11.00
864 50.1700 635.00 462.39 11.00
865 50.2200 647.00 458.77 11.00
866 50.2700 647.00 455.59 11.00
867 50.3200 615.00 452.84 11.00
868 50.3700 572.00 450.49 11.00
869 50.4200 522.00 448.49 10.00
870 50.4700 494.00 446.83 10.00
871 50.5200 455.00 445.47 10.00
872 50.5700 451.00 444.43 9.00
873 50.6200 438.00 443.71 9.00
874 50.6700 437.00 443.32 9.00
875 50.7200 449.00 443.32 9.00
876 50.7700 429.00 443.75 9.00
877 50.8200 438.00 444.75 9.00
878 50.8700 452.00 446.53 9.00
879 50.9200 431.00 449.71 9.00
880 50.9700 443.00 456.04 9.00
881 51.0200 458.00 470.28 10.00
882 51.0700 495.00 503.77 10.00
883 51.1200 570.00 578.92 11.00
884 51.1700 735.00 715.75 12.00
885 51.2200 1032.00 981.54 14.00
886 51.2700 1408.00 1368.18 17.00
887 51.3200 1841.00 1812.80 19.00
888 51.3700 2137.00 2170.28 21.00
889 51.4200 2238.00 2269.29 21.00
890 51.4700 1962.00 2037.64 22.00
891 51.5200 1569.00 1591.84 20.00
892 51.5700 1131.00 1131.83 17.00
893 51.6200 780.00 788.78 14.00
894 51.6700 573.00 589.03 12.00
895 51.7200 505.00 494.50 11.00
896 51.7700 472.00 456.22 11.00
897 51.8200 440.00 441.76 10.00
898 51.8700 441.00 436.55 10.00
899 51.9200 454.00 436.31 11.00
900 51.9700 450.00 441.05 11.00
901 52.0200 436.00 451.70 10.00
902 52.0700 447.00 467.75 11.00
903 52.1200 480.00 485.26 11.00
904 52.1700 489.00 497.05 11.00
905 52.2200 505.00 496.14 11.00
906 52.2700 468.00 481.73 11.00
907 52.3200 441.00 460.84 10.00
908 52.3700 461.00 441.74 11.00
909 52.4200 440.00 428.60 10.00
910 52.4700 394.00 421.37 10.00
911 52.5200 407.00 417.99 9.00
912 52.5700 414.00 416.51 9.00
913 52.6200 399.00 415.77 9.00
914 52.6700 402.00 415.32 9.00
915 52.7200 409.00 414.98 9.00
916 52.7700 423.00 414.71 9.00
917 52.8200 431.00 414.48 9.00
918 52.8700 410.00 414.29 9.00
919 52.9200 420.00 414.13 9.00
920 52.9700 428.00 413.99 9.00
921 53.0200 438.00 413.88 9.00
922 53.0700 417.00 413.78 9.00
923 53.1200 413.00 413.70 9.00
924 53.1700 427.00 413.62 9.00
925 53.2200 435.00 413.56 9.00
926 53.2700 420.00 413.51 9.00
927 53.3200 417.00 413.90 9.00
928 53.3700 412.00 413.89 9.00
929 53.4200 410.00 413.88 9.00
930 53.4700 421.00 413.88 9.00
931 53.5200 391.00 412.78 9.00
932 53.5700 411.00 412.85 9.00
933 53.6200 399.00 412.92 9.00
934 53.6700 402.00 412.99 9.00
935 53.7200 403.00 413.07 9.00
936 53.7700 383.00 413.15 9.00
937 53.8200 397.00 413.24 9.00
938 53.8700 399.00 413.33 10.00
939 53.9200 400.00 413.43 10.00
940 53.9700 384.00 413.54 10.00
941 54.0200 403.00 413.65 10.00
942 54.0700 392.00 413.78 10.00
943 54.1200 381.00 413.92 10.00
944 54.1700 382.00 414.07 10.00
945 54.2200 365.00 414.24 10.00
946 54.2700 393.00 414.44 10.00
947 54.3200 402.00 414.61 10.00
948 54.3700 385.00 414.86 10.00
949 54.4200 400.00 415.15 10.00
950 54.4700 380.00 415.48 10.00
951 54.5200 397.00 415.88 10.00
952 54.5700 383.00 416.36 10.00
953 54.6200 384.00 416.95 10.00
954 54.6700 404.00 417.68 10.00
955 54.7200 386.00 418.62 10.00
956 54.7700 388.00 419.90 10.00
957 54.8200 406.00 421.93 10.00
958 54.8700 407.00 425.89 10.00
959 54.9200 424.00 434.92 9.00
960 54.9700 421.00 456.06 9.00
961 55.0200 485.00 501.57 10.00
962 55.0700 562.00 585.95 11.00
963 55.1200 667.00 714.48 12.00
964 55.1700 839.00 866.21 13.00
965 55.2200 991.00 988.04 14.00
966 55.2700 998.00 1016.92 14.00
967 55.3200 912.00 930.20 13.00
968 55.3700 768.00 776.24 12.00
969 55.4200 603.00 626.22 11.00
970 55.4700 506.00 520.62 10.00
971 55.5200 440.00 462.82 9.00
972 55.5700 429.00 439.28 9.00
973 55.6200 427.00 429.29 9.00
974 55.6700 409.00 425.36 9.00
975 55.7200 391.00 423.48 9.00
976 55.7700 401.00 422.35 9.00
977 55.8200 387.00 421.59 9.00
978 55.8700 389.00 421.06 9.00
979 55.9200 389.00 420.70 9.00
980 55.9700 382.00 420.48 9.00
981 56.0200 397.00 420.37 9.00
982 56.0700 389.00 420.36 9.00
983 56.1200 380.00 420.42 9.00
984 56.1700 395.00 420.57 9.00
985 56.2200 383.00 420.78 9.00
986 56.2700 382.00 421.08 10.00
987 56.3200 395.00 421.97 10.00
988 56.3700 397.00 422.46 10.00
989 56.4200 406.00 423.04 10.00
990 56.4700 396.00 423.74 10.00
991 56.5200 399.00 424.56 10.00
992 56.5700 396.00 425.54 10.00
993 56.6200 393.00 426.70 10.00
994 56.6700 410.00 428.10 10.00
995 56.7200 394.00 429.78 10.00
996 56.7700 386.00 431.82 10.00
997 56.8200 387.00 434.34 10.00
998 56.8700 412.00 437.48 10.00
999 56.9200 406.00 441.48 10.00
1000 56.9700 389.00 446.75 10.00
1001 57.0200 410.00 454.25 10.00
1002 57.0700 423.00 466.82 10.00
1003 57.1200 457.00 493.02 11.00
1004 57.1700 515.00 555.31 11.00
1005 57.2200 642.00 701.27 13.00
1006 57.2700 942.00 1005.20 15.00
1007 57.3200 1424.00 1533.68 17.00
1008 57.3700 2191.00 2263.98 21.00
1009 57.4200 2932.00 3000.53 24.00
1010 57.4700 3351.00 3410.72 26.00
1011 57.5200 3221.00 3235.15 25.00
1012 57.5700 2606.00 2564.83 23.00
1013 57.6200 1773.00 1766.10 19.00
1014 57.6700 1102.00 1133.78 15.00
1015 57.7200 703.00 756.39 12.00
1016 57.7700 531.00 578.24 10.00
1017 57.8200 496.00 509.21 10.00
1018 57.8700 474.00 489.06 10.00
1019 57.9200 480.00 495.80 10.00
1020 57.9700 511.00 532.96 10.00
1021 58.0200 618.00 615.77 11.00
1022 58.0700 752.00 753.38 12.00
1023 58.1200 926.00 925.37 14.00
1024 58.1700 1053.00 1070.08 14.00
1025 58.2200 1061.00 1109.14 15.00
1026 58.2700 965.00 1011.06 14.00
1027 58.3200 808.00 833.11 13.00
1028 58.3700 620.00 660.65 11.00
1029 58.4200 521.00 540.96 10.00
1030 58.4700 464.00 476.51 10.00
1031 58.5200 421.00 448.04 9.00
1032 58.5700 412.00 436.64 9.00
1033 58.6200 425.00 431.67 9.00
1034 58.6700 402.00 428.89 10.00
1035 58.7200 420.00 426.95 10.00
1036 58.7700 404.00 425.46 10.00
1037 58.8200 404.00 424.26 10.00
1038 58.8700 406.00 423.28 10.00
1039 58.9200 424.00 422.46 10.00
1040 58.9700 401.00 421.78 10.00
1041 59.0200 414.00 421.19 10.00
1042 59.0700 419.00 420.69 10.00
1043 59.1200 414.00 420.26 10.00
1044 59.1700 418.00 424.74 10.00
1045 59.2200 411.00 424.67 10.00
1046 59.2700 421.00 424.66 10.00
1047 59.3200 416.00 424.71 10.00
1048 59.3700 425.00 424.82 10.00
1049 59.4200 452.00 424.98 11.00
1050 59.4700 443.00 425.20 10.00
1051 59.5200 467.00 423.51 11.00
1052 59.5700 502.00 423.94 11.00
1053 59.6200 558.00 424.43 12.00
1054 59.6700 573.00 424.99 12.00
1055 59.7200 587.00 425.62 11.00
1056 59.7700 598.00 426.33 11.00
1057 59.8200 567.00 427.14 11.00
1058 59.8700 510.00 428.06 10.00
1059 59.9200 485.00 429.11 10.00
1060 59.9700 456.00 430.31 10.00
1061 60.0200 434.00 431.68 9.00
1062 60.0700 424.00 433.27 9.00
1063 60.1200 430.00 435.12 9.00
1064 60.1700 411.00 437.29 9.00
1065 60.2200 421.00 439.39 9.00
1066 60.2700 431.00 442.45 9.00
1067 60.3200 431.00 446.14 9.00
1068 60.3700 421.00 450.61 9.00
1069 60.4200 451.00 456.12 9.00
1070 60.4700 426.00 463.00 9.00
1071 60.5200 440.00 471.78 9.00
1072 60.5700 447.00 483.31 9.00
1073 60.6200 463.00 499.51 10.00
1074 60.6700 523.00 525.98 10.00
1075 60.7200 544.00 580.41 10.00
1076 60.7700 679.00 712.12 12.00
1077 60.8200 1019.00 1030.21 14.00
1078 60.8700 1723.00 1708.02 19.00
1079 60.9200 2989.00 2894.67 24.00
1080 60.9700 4689.00 4506.65 31.00
1081 61.0200 6154.00 6044.19 35.00
1082 61.0700 6645.00 6725.06 41.00
1083 61.1200 6026.00 6070.75 39.00
1084 61.1700 4508.00 4489.43 34.00
1085 61.2200 2791.00 2830.66 26.00
1086 61.2700 1527.00 1634.36 20.00
1087 61.3200 909.00 974.89 15.00
1088 61.3700 666.00 682.97 13.00
1089 61.4200 574.00 569.66 12.00
1090 61.4700 523.00 523.99 11.00
1091 61.5200 474.00 500.80 11.00
1092 61.5700 479.00 485.82 11.00
1093 61.6200 466.00 474.91 11.00
1094 61.6700 444.00 466.61 11.00
1095 61.7200 456.00 460.15 11.00
1096 61.7700 451.00 455.07 11.00
1097 61.8200 428.00 451.02 10.00
1098 61.8700 450.00 447.80 11.00
1099 61.9200 430.00 445.22 10.00
1100 61.9700 441.00 443.17 10.00
1101 62.0200 422.00 441.56 10.00
1102 62.0700 423.00 440.34 10.00
1103 62.1200 419.00 439.45 9.00
1104 62.1700 430.00 438.88 9.00
1105 62.2200 433.00 438.61 9.00
1106 62.2700 411.00 438.65 9.00
1107 62.3200 440.00 439.00 9.00
1108 62.3700 427.00 439.69 9.00
1109 62.4200 435.00 440.79 9.00
1110 62.4700 445.00 442.35 9.00
1111 62.5200 437.00 444.50 9.00
1112 62.5700 461.00 447.40 10.00
1113 62.6200 485.00 451.30 10.00
1114 62.6700 501.00 456.60 10.00
1115 62.7200 480.00 464.23 10.00
1116 62.7700 487.00 476.85 10.00
1117 62.8200 533.00 503.02 10.00
1118 62.8700 579.00 567.24 11.00
1119 62.9200 734.00 724.59 12.00
1120 62.9700 1082.00 1062.52 15.00
1121 63.0200 1708.00 1653.46 18.00
1122 63.0700 2537.00 2441.03 23.00
1123 63.1200 3181.00 3169.70 25.00
1124 63.1700 3383.00 3440.67 26.00
1125 63.2200 3016.00 3053.51 25.00
1126 63.2700 2184.00 2261.19 21.00
1127 63.3200 1410.00 1479.79 17.00
1128 63.3700 859.00 940.22 13.00
1129 63.4200 613.00 655.16 11.00
1130 63.4700 515.00 532.90 11.00
1131 63.5200 487.00 485.81 11.00
1132 63.5700 460.00 466.14 11.00
1133 63.6200 474.00 455.56 11.00
1134 63.6700 475.00 448.47 11.00
1135 63.7200 440.00 443.22 10.00
1136 63.7700 454.00 439.17 11.00
1137 63.8200 451.00 435.98 11.00
1138 63.8700 462.00 433.43 11.00
1139 63.9200 439.00 431.36 10.00
1140 63.9700 414.00 429.66 10.00
1141 64.0200 422.00 428.24 10.00
1142 64.0700 411.00 427.05 10.00
1143 64.1200 418.00 426.05 10.00
1144 64.1700 414.00 425.19 10.00
1145 64.2200 416.00 424.45 10.00
1146 64.2700 425.00 423.81 10.00
1147 64.3200 420.00 423.26 10.00
1148 64.3700 430.00 422.77 10.00
1149 64.4200 424.00 422.35 10.00
1150 64.4700 426.00 421.98 10.00
1151 64.5200 432.00 421.65 9.00
1152 64.5700 430.00 421.36 9.00
1153 64.6200 432.00 421.10 9.00
1154 64.6700 425.00 420.86 9.00
1155 64.7200 427.00 422.31 9.00
1156 64.7700 438.00 422.22 9.00
1157 64.8200 413.00 422.16 9.00
1158 64.8700 410.00 422.12 9.00
1159 64.9200 412.00 422.11 9.00
1160 64.9700 424.00 422.12 9.00
1161 65.0200 424.00 422.15 9.00
1162 65.0700 417.00 422.22 9.00
1163 65.1200 421.00 420.08 9.00
1164 65.1700 418.00 420.30 9.00
1165 65.2200 412.00 420.55 9.00
1166 65.2700 423.00 420.82 9.00
1167 65.3200 417.00 421.13 9.00
1168 65.3700 421.00 421.46 9.00
1169 65.4200 426.00 421.84 9.00
1170 65.4700 439.00 422.27 9.00
1171 65.5200 440.00 422.75 9.00
1172 65.5700 428.00 423.30 9.00
1173 65.6200 435.00 423.93 9.00
1174 65.6700 430.00 424.66 9.00
1175 65.7200 421.00 425.52 9.00
1176 65.7700 418.00 426.52 9.00
1177 65.8200 431.00 427.73 9.00
1178 65.8700 437.00 429.18 10.00
1179 65.9200 444.00 430.95 11.00
1180 65.9700 412.00 433.16 10.00
1181 66.0200 424.00 435.96 10.00
1182 66.0700 435.00 439.58 10.00
1183 66.1200 450.00 444.48 11.00
1184 66.1700 467.00 451.88 11.00
1185 66.2200 458.00 465.67 11.00
1186 66.2700 511.00 497.99 11.00
1187 66.3200 558.00 579.06 12.00
1188 66.3700 757.00 763.38 14.00
1189 66.4200 1101.00 1108.21 17.00
1190 66.4700 1620.00 1606.80 20.00
1191 66.5200 2082.00 2114.23 23.00
1192 66.5700 2396.00 2367.93 24.00
1193 66.6200 2211.00 2186.31 23.00
1194 66.6700 1720.00 1694.04 21.00
1195 66.7200 1235.00 1177.62 18.00
1196 66.7700 835.00 802.41 14.00
1197 66.8200 581.00 598.27 12.00
1198 66.8700 493.00 509.06 11.00
1199 66.9200 491.00 474.70 10.00
1200 66.9700 467.00 460.80 10.00
1201 67.0200 461.00 453.74 10.00
1202 67.0700 482.00 449.30 10.00
1203 67.1200 438.00 446.23 9.00
1204 67.1700 454.00 444.07 9.00
1205 67.2200 446.00 442.60 9.00
1206 67.2700 438.00 441.66 9.00
1207 67.3200 449.00 441.15 9.00
1208 67.3700 450.00 441.01 9.00
1209 67.4200 432.00 441.19 9.00
1210 67.4700 444.00 441.70 9.00
1211 67.5200 445.00 442.51 9.00
1212 67.5700 457.00 443.65 10.00
1213 67.6200 456.00 445.14 10.00
1214 67.6700 440.00 447.02 9.00
1215 67.7200 460.00 449.36 10.00
1216 67.7700 445.00 452.26 9.00
1217 67.8200 465.00 455.82 10.00
1218 67.8700 456.00 460.24 10.00
1219 67.9200 462.00 465.74 10.00
1220 67.9700 469.00 472.67 10.00
1221 68.0200 477.00 481.52 10.00
1222 68.0700 481.00 493.05 10.00
1223 68.1200 517.00 508.65 10.00
1224 68.1700 516.00 531.82 10.00
1225 68.2200 566.00 573.85 11.00
1226 68.2700 668.00 670.51 13.00
1227 68.3200 901.00 914.16 15.00
1228 68.3700 1520.00 1478.02 19.00
1229 68.4200 2647.00 2555.95 26.00
1230 68.4700 4380.00 4153.06 33.00
1231 68.5200 5885.00 5830.49 38.00
1232 68.5700 6806.00 6737.39 41.00
1233 68.6200 6337.00 6227.26 40.00
1234 68.6700 4817.00 4657.78 35.00
1235 68.7200 3052.00 2949.58 28.00
1236 68.7700 1696.00 1700.87 21.00
1237 68.8200 985.00 1011.90 16.00
1238 68.8700 712.00 706.69 13.00
1239 68.9200 611.00 587.34 12.00
1240 68.9700 580.00 538.09 12.00
1241 69.0200 548.00 512.33 12.00
1242 69.0700 533.00 495.39 12.00
1243 69.1200 514.00 482.97 11.00
1244 69.1700 519.00 473.46 11.00
1245 69.2200 487.00 466.00 11.00
1246 69.2700 491.00 460.06 11.00
1247 69.3200 461.00 455.25 10.00
1248 69.3700 478.00 451.31 10.00
1249 69.4200 470.00 448.05 10.00
1250 69.4700 457.00 445.31 10.00
1251 69.5200 452.00 443.01 9.00
1252 69.5700 452.00 441.05 9.00
1253 69.6200 441.00 439.37 9.00
1254 69.6700 453.00 437.92 9.00
1255 69.7200 447.00 436.67 9.00
1256 69.7700 455.00 435.58 10.00
1257 69.8200 447.00 434.63 9.00
1258 69.8700 458.00 433.79 10.00
1259 69.9200 451.00 433.05 9.00
1260 69.9700 436.00 438.47 9.00
1261 70.0200 450.00 438.23 9.00
1262 70.0700 454.00 438.08 9.00
1263 70.1200 463.00 438.02 10.00
1264 70.1700 448.00 438.04 9.00
1265 70.2200 447.00 438.15 9.00
1266 70.2700 445.00 438.34 9.00
1267 70.3200 454.00 438.62 9.00
1268 70.3700 444.00 438.98 9.00
1269 70.4200 453.00 439.44 9.00
1270 70.4700 442.00 440.00 9.00
1271 70.5200 441.00 435.66 9.00
1272 70.5700 453.00 436.69 9.00
1273 70.6200 450.00 437.85 9.00
1274 70.6700 449.00 439.13 11.00
1275 70.7200 453.00 440.58 11.00
1276 70.7700 466.00 442.21 11.00
1277 70.8200 447.00 444.07 11.00
1278 70.8700 476.00 446.20 11.00
1279 70.9200 468.00 448.66 11.00
1280 70.9700 469.00 451.53 11.00
1281 71.0200 473.00 454.89 11.00
1282 71.0700 463.00 458.88 11.00
1283 71.1200 475.00 463.66 11.00
1284 71.1700 481.00 469.47 11.00
1285 71.2200 482.00 476.61 11.00
1286 71.2700 494.00 485.54 11.00
1287 71.3200 502.00 496.91 11.00
1288 71.3700 507.00 511.77 11.00
1289 71.4200 551.00 532.23 12.00
1290 71.4700 570.00 564.24 12.00
1291 71.5200 623.00 627.41 12.00
1292 71.5700 765.00 780.11 14.00
1293 71.6200 1120.00 1157.28 17.00
1294 71.6700 1858.00 1972.39 22.00
1295 71.7200 3201.00 3389.62 25.00
1296 71.7700 5087.00 5251.06 32.00
1297 71.8200 6525.00 6870.17 36.00
1298 71.8700 7016.00 7278.68 37.00
1299 71.9200 6070.00 6156.09 35.00
1300 71.9700 4364.00 4283.51 30.00
1301 72.0200 2657.00 2585.51 23.00
1302 72.0700 1468.00 1478.93 17.00
1303 72.1200 896.00 918.38 13.00
1304 72.1700 694.00 682.75 12.00
1305 72.2200 619.00 589.81 11.00
1306 72.2700 591.00 547.97 11.00
1307 72.3200 554.00 523.72 10.00
1308 72.3700 556.00 506.91 11.00
1309 72.4200 519.00 494.34 10.00
1310 72.4700 508.00 484.65 10.00
1311 72.5200 517.00 477.08 10.00
1312 72.5700 499.00 471.02 10.00
1313 72.6200 489.00 466.13 10.00
1314 72.6700 484.00 462.16 10.00
1315 72.7200 494.00 458.91 10.00
1316 72.7700 480.00 456.24 10.00
1317 72.8200 471.00 454.05 10.00
1318 72.8700 468.00 452.27 10.00
1319 72.9200 472.00 450.83 10.00
1320 72.9700 464.00 449.70 10.00
1321 73.0200 459.00 448.84 10.00
1322 73.0700 450.00 448.26 11.00
1323 73.1200 459.00 447.95 11.00
1324 73.1700 459.00 447.93 11.00
1325 73.2200 449.00 448.23 11.00
1326 73.2700 449.00 448.93 11.00
1327 73.3200 449.00 450.15 11.00
1328 73.3700 447.00 452.18 11.00
1329 73.4200 464.00 455.91 11.00
1330 73.4700 471.00 464.27 11.00
1331 73.5200 498.00 485.49 11.00
1332 73.5700 532.00 536.89 12.00
1333 73.6200 640.00 642.43 13.00
1334 73.6700 791.00 814.10 14.00
1335 73.7200 991.00 1021.46 16.00
1336 73.7700 1130.00 1176.87 17.00
1337 73.8200 1165.00 1174.20 17.00
1338 73.8700 1035.00 1021.44 16.00
1339 73.9200 849.00 813.12 15.00
1340 73.9700 657.00 639.31 13.00
1341 74.0200 543.00 532.17 12.00
1342 74.0700 495.00 480.18 11.00
1343 74.1200 455.00 459.20 10.00
1344 74.1700 459.00 452.04 10.00
1345 74.2200 457.00 451.40 10.00
1346 74.2700 459.00 455.68 10.00
1347 74.3200 472.00 464.38 10.00
1348 74.3700 485.00 474.91 10.00
1349 74.4200 481.00 481.75 10.00
1350 74.4700 479.00 479.55 10.00
1351 74.5200 447.00 469.33 9.00
1352 74.5700 466.00 457.08 10.00
1353 74.6200 435.00 447.39 9.00
1354 74.6700 435.00 441.58 9.00
1355 74.7200 441.00 438.75 9.00
1356 74.7700 433.00 437.53 9.00
1357 74.8200 432.00 437.00 9.00
1358 74.8700 440.00 436.71 9.00
1359 74.9200 422.00 436.54 9.00
1360 74.9700 412.00 436.43 9.00
1361 75.0200 435.00 437.46 9.00
1362 75.0700 424.00 437.49 9.00
1363 75.1200 435.00 437.54 9.00
1364 75.1700 417.00 437.63 9.00
1365 75.2200 418.00 437.73 9.00
1366 75.2700 420.00 437.86 9.00
1367 75.3200 421.00 438.01 9.00
1368 75.3700 432.00 438.17 9.00
1369 75.4200 442.00 438.36 9.00
1370 75.4700 423.00 438.56 10.00
1371 75.5200 427.00 438.78 10.00
1372 75.5700 436.00 439.02 10.00
1373 75.6200 443.00 439.29 10.00
1374 75.6700 428.00 439.57 10.00
1375 75.7200 439.00 439.89 10.00
1376 75.7700 422.00 439.59 10.00
1377 75.8200 429.00 439.99 10.00
1378 75.8700 432.00 440.43 10.00
1379 75.9200 444.00 440.91 11.00
1380 75.9700 439.00 441.44 10.00
1381 76.0200 443.00 442.02 10.00
1382 76.0700 452.00 442.68 11.00
1383 76.1200 450.00 443.42 11.00
1384 76.1700 447.00 444.28 11.00
1385 76.2200 439.00 445.27 10.00
1386 76.2700 436.00 446.42 10.00
1387 76.3200 439.00 447.81 10.00
1388 76.3700 432.00 449.49 10.00
1389 76.4200 452.00 451.52 11.00
1390 76.4700 454.00 454.15 11.00
1391 76.5200 448.00 457.60 9.00
1392 76.5700 467.00 462.55 10.00
1393 76.6200 467.00 471.10 10.00
1394 76.6700 484.00 489.74 10.00
1395 76.7200 523.00 535.03 10.00
1396 76.7700 620.00 637.80 11.00
1397 76.8200 809.00 833.58 13.00
1398 76.8700 1114.00 1133.31 15.00
1399 76.9200 1458.00 1458.40 17.00
1400 76.9700 1630.00 1664.28 18.00
1401 77.0200 1540.00 1612.60 18.00
1402 77.0700 1322.00 1341.32 16.00
1403 77.1200 986.00 1014.18 14.00
1404 77.1700 732.00 754.47 12.00
1405 77.2200 562.00 598.22 11.00
1406 77.2700 494.00 522.86 10.00
1407 77.3200 477.00 491.72 10.00
1408 77.3700 479.00 479.27 10.00
1409 77.4200 470.00 473.58 10.00
1410 77.4700 466.00 470.52 10.00
1411 77.5200 474.00 468.60 10.00
1412 77.5700 475.00 467.47 10.00
1413 77.6200 459.00 466.93 10.00
1414 77.6700 467.00 466.86 10.00
1415 77.7200 468.00 467.21 10.00
1416 77.7700 472.00 467.94 10.00
1417 77.8200 446.00 469.02 9.00
1418 77.8700 459.00 470.48 11.00
1419 77.9200 463.00 472.34 11.00
1420 77.9700 452.00 474.65 11.00
1421 78.0200 492.00 477.47 11.00
1422 78.0700 477.00 480.90 11.00
1423 78.1200 462.00 485.09 11.00
1424 78.1700 480.00 490.22 11.00
1425 78.2200 492.00 496.55 11.00
1426 78.2700 487.00 504.45 11.00
1427 78.3200 495.00 514.46 11.00
1428 78.3700 501.00 527.41 11.00
1429 78.4200 505.00 544.91 11.00
1430 78.4700 543.00 571.19 12.00
1431 78.5200 571.00 619.46 12.00
1432 78.5700 663.00 728.56 13.00
1433 78.6200 917.00 990.23 15.00
1434 78.6700 1461.00 1560.33 19.00
1435 78.7200 2551.00 2593.67 25.00
1436 78.7700 4019.00 4067.83 32.00
1437 78.8200 5487.00 5597.64 37.00
1438 78.8700 6345.00 6447.06 40.00
1439 78.9200 6150.00 6037.83 35.00
1440 78.9700 4853.00 4663.37 31.00
1441 79.0200 3266.00 3098.72 26.00
1442 79.0700 1933.00 1883.12 20.00
1443 79.1200 1122.00 1155.78 15.00
1444 79.1700 740.00 802.91 12.00
1445 79.2200 645.00 655.36 11.00
1446 79.2700 599.00 598.15 11.00
1447 79.3200 577.00 578.99 11.00
1448 79.3700 587.00 579.54 11.00
1449 79.4200 586.00 590.79 11.00
1450 79.4700 595.00 601.57 11.00
1451 79.5200 624.00 598.56 11.00
1452 79.5700 581.00 577.25 11.00
1453 79.6200 559.00 546.97 11.00
1454 79.6700 521.00 519.02 10.00
1455 79.7200 496.00 499.04 10.00
1456 79.7700 503.00 487.06 10.00
1457 79.8200 470.00 480.43 10.00
1458 79.8700 480.00 476.58 10.00
1459 79.9200 465.00 482.45 10.00
1460 79.9700 477.00 480.92 10.00
1461 80.0200 473.00 479.77 10.00
1462 80.0700 466.00 478.92 10.00
1463 80.1200 468.00 478.31 10.00
1464 80.1700 455.00 477.92 10.00
1465 80.2200 475.00 477.70 10.00
1466 80.2700 460.00 477.66 11.00
1467 80.3200 463.00 477.78 11.00
1468 80.3700 449.00 478.05 11.00
1469 80.4200 473.00 478.47 11.00
1470 80.4700 463.00 479.04 11.00
1471 80.5200 465.00 479.77 11.00
1472 80.5700 468.00 480.65 11.00
1473 80.6200 474.00 481.70 11.00
1474 80.6700 465.00 482.94 11.00
1475 80.7200 468.00 484.37 11.00
1476 80.7700 462.00 486.04 11.00
1477 80.8200 492.00 487.95 11.00
1478 80.8700 469.00 490.16 11.00
1479 80.9200 475.00 492.71 11.00
1480 80.9700 496.00 490.70 11.00
1481 81.0200 495.00 494.34 11.00
1482 81.0700 496.00 498.53 11.00
1483 81.1200 501.00 503.39 11.00
1484 81.1700 513.00 509.08 11.00
1485 81.2200 540.00 515.81 12.00
1486 81.2700 528.00 523.85 11.00
1487 81.3200 525.00 533.57 10.00
1488 81.3700 540.00 545.49 10.00
1489 81.4200 539.00 560.33 10.00
1490 81.4700 563.00 579.17 11.00
1491 81.5200 602.00 603.94 11.00
1492 81.5700 634.00 639.13 11.00
1493 81.6200 688.00 698.01 12.00
1494 81.6700 781.00 820.09 12.00
1495 81.7200 1054.00 1105.37 14.00
1496 81.7700 1755.00 1739.82 19.00
1497 81.8200 3094.00 2967.88 25.00
1498 81.8700 5125.00 4913.16 32.00
1499 81.9200 7412.00 7307.76 38.00
1500 81.9700 9232.00 9337.21 43.00
1501 82.0200 9576.00 9895.96 44.00
1502 82.0700 8385.00 8597.38 41.00
1503 82.1200 6258.00 6281.05 35.00
1504 82.1700 3894.00 4009.21 28.00
1505 82.2200 2214.00 2363.62 21.00
1506 82.2700 1296.00 1415.27 16.00
1507 82.3200 884.00 959.39 13.00
1508 82.3700 756.00 762.48 12.00
1509 82.4200 685.00 675.67 12.00
1510 82.4700 652.00 630.26 11.00
1511 82.5200 629.00 601.10 11.00
1512 82.5700 573.00 579.94 11.00
1513 82.6200 592.00 563.75 11.00
1514 82.6700 558.00 551.09 12.00
1515 82.7200 567.00 541.06 12.00
1516 82.7700 547.00 533.04 12.00
1517 82.8200 546.00 526.60 12.00
1518 82.8700 536.00 521.42 12.00
1519 82.9200 543.00 517.28 12.00
1520 82.9700 535.00 514.02 12.00
1521 83.0200 516.00 511.51 11.00
1522 83.0700 500.00 509.69 11.00
1523 83.1200 516.00 508.52 11.00
1524 83.1700 536.00 507.98 12.00
1525 83.2200 512.00 508.11 11.00
1526 83.2700 518.00 508.99 11.00
1527 83.3200 512.00 510.74 11.00
1528 83.3700 512.00 513.66 11.00
1529 83.4200 507.00 518.40 11.00
1530 83.4700 533.00 526.91 12.00
1531 83.5200 522.00 544.87 11.00
1532 83.5700 579.00 586.67 12.00
1533 83.6200 648.00 680.70 13.00
1534 83.6700 861.00 866.49 15.00
1535 83.7200 1103.00 1172.00 15.00
1536 83.7700 1518.00 1572.26 17.00
1537 83.8200 1847.00 1957.29 19.00
1538 83.8700 2080.00 2148.10 20.00
1539 83.9200 1988.00 2023.16 20.00
1540 83.9700 1656.00 1664.82 18.00
1541 84.0200 1261.00 1255.56 16.00
1542 84.0700 945.00 924.88 14.00
1543 84.1200 720.00 715.34 12.00
1544 84.1700 570.00 600.69 11.00
1545 84.2200 561.00 560.56 11.00
1546 84.2700 599.00 560.38 11.00
1547 84.3200 622.00 588.30 11.00
1548 84.3700 691.00 637.18 12.00
1549 84.4200 753.00 693.57 12.00
1550 84.4700 765.00 733.48 12.00
1551 84.5200 767.00 732.10 12.00
1552 84.5700 688.00 688.55 12.00
1553 84.6200 651.00 626.70 11.00
1554 84.6700 586.00 570.01 11.00
1555 84.7200 517.00 529.97 10.00
1556 84.7700 496.00 506.74 10.00
1557 84.8200 510.00 495.19 10.00
1558 84.8700 476.00 489.86 10.00
1559 84.9200 468.00 487.27 10.00
1560 84.9700 499.00 485.80 10.00
1561 85.0200 499.00 484.80 10.00
1562 85.0700 503.00 484.07 11.00
1563 85.1200 497.00 483.52 11.00
1564 85.1700 467.00 483.09 11.00
1565 85.2200 462.00 482.77 11.00
1566 85.2700 470.00 482.53 11.00
1567 85.3200 468.00 482.35 11.00
1568 85.3700 473.00 482.23 11.00
1569 85.4200 470.00 482.16 11.00
1570 85.4700 471.00 482.13 11.00
1571 85.5200 466.00 482.12 11.00
1572 85.5700 488.00 482.15 11.00
1573 85.6200 498.00 482.20 11.00
1574 85.6700 473.00 482.27 11.00
1575 85.7200 504.00 482.37 11.00
1576 85.7700 466.00 482.48 11.00
1577 85.8200 479.00 482.61 11.00
1578 85.8700 488.00 482.75 11.00
1579 85.9200 460.00 482.91 11.00
1580 85.9700 467.00 483.08 11.00
1581 86.0200 467.00 483.27 11.00
1582 86.0700 487.00 482.05 11.00
1583 86.1200 468.00 482.33 10.00
1584 86.1700 481.00 482.63 10.00
1585 86.2200 492.00 482.94 10.00
1586 86.2700 479.00 483.27 10.00
1587 86.3200 481.00 483.62 10.00
1588 86.3700 461.00 484.01 10.00
1589 86.4200 482.00 484.44 10.00
1590 86.4700 480.00 490.33 10.00
1591 86.5200 469.00 491.20 10.00
1592 86.5700 469.00 492.39 10.00
1593 86.6200 477.00 494.34 10.00
1594 86.6700 477.00 498.07 10.00
1595 86.7200 474.00 505.08 10.00
1596 86.7700 493.00 517.81 10.00
1597 86.8200 537.00 536.93 10.00
1598 86.8700 560.00 560.30 11.00
1599 86.9200 604.00 581.52 11.00
1600 86.9700 585.00 591.34 11.00
1601 87.0200 602.00 584.30 11.00
1602 87.0700 570.00 565.11 11.00
1603 87.1200 548.00 543.05 10.00
1604 87.1700 511.00 524.89 10.00
1605 87.2200 510.00 513.11 10.00
1606 87.2700 509.00 507.02 10.00
1607 87.3200 507.00 504.65 10.00
1608 87.3700 502.00 504.24 10.00
1609 87.4200 509.00 504.74 10.00
1610 87.4700 503.00 505.67 11.00
1611 87.5200 494.00 506.88 11.00
1612 87.5700 510.00 508.30 11.00
1613 87.6200 509.00 509.94 11.00
1614 87.6700 513.00 511.82 11.00
1615 87.7200 529.00 513.96 11.00
1616 87.7700 533.00 516.41 12.00
1617 87.8200 523.00 519.21 11.00
1618 87.8700 532.00 522.43 12.00
1619 87.9200 545.00 526.16 12.00
1620 87.9700 572.00 530.52 12.00
1621 88.0200 552.00 535.66 12.00
1622 88.0700 555.00 541.76 12.00
1623 88.1200 553.00 549.09 12.00
1624 88.1700 558.00 558.02 12.00
1625 88.2200 595.00 569.07 12.00
1626 88.2700 590.00 583.11 12.00
1627 88.3200 636.00 601.96 13.00
1628 88.3700 607.00 630.34 12.00
1629 88.4200 652.00 681.10 13.00
1630 88.4700 766.00 786.25 14.00
1631 88.5200 936.00 1011.89 14.00
1632 88.5700 1363.00 1464.10 16.00
1633 88.6200 2228.00 2259.16 21.00
1634 88.6700 3436.00 3439.54 26.00
1635 88.7200 4750.00 4866.44 31.00
1636 88.7700 6003.00 6159.84 35.00
1637 88.8200 6625.00 6774.15 36.00
1638 88.8700 6321.00 6364.29 36.00
1639 88.9200 5246.00 5167.95 32.00
1640 88.9700 3930.00 3729.83 28.00
1641 89.0200 2563.00 2478.51 23.00
1642 89.0700 1577.00 1601.98 18.00
1643 89.1200 1083.00 1086.75 15.00
1644 89.1700 821.00 823.81 13.00
1645 89.2200 736.00 700.62 12.00
1646 89.2700 671.00 642.32 12.00
1647 89.3200 666.00 611.17 12.00
1648 89.3700 643.00 591.31 11.00
1649 89.4200 641.00 588.59 11.00
1650 89.4700 616.00 577.92 11.00
1651 89.5200 595.00 569.54 11.00
1652 89.5700 570.00 562.87 11.00
1653 89.6200 580.00 557.54 11.00
1654 89.6700 579.00 553.26 11.00
1655 89.7200 579.00 549.83 11.00
1656 89.7700 555.00 547.08 11.00
1657 89.8200 564.00 544.91 11.00
1658 89.8700 558.00 543.23 12.00
1659 89.9200 567.00 541.96 12.00
1660 89.9700 546.00 541.06 12.00
1661 90.0200 547.00 540.47 12.00
1662 90.0700 561.00 540.19 12.00
1663 90.1200 526.00 540.17 11.00
1664 90.1700 542.00 540.41 12.00
1665 90.2200 538.00 540.90 12.00
1666 90.2700 553.00 541.63 12.00
1667 90.3200 535.00 542.61 12.00
1668 90.3700 542.00 543.84 12.00
1669 90.4200 553.00 545.33 12.00
1670 90.4700 577.00 547.10 12.00
1671 90.5200 534.00 549.18 12.00
1672 90.5700 534.00 551.58 12.00
1673 90.6200 545.00 554.36 12.00
1674 90.6700 560.00 557.55 12.00
1675 90.7200 573.00 561.22 12.00
1676 90.7700 567.00 565.43 12.00
1677 90.8200 581.00 570.28 12.00
1678 90.8700 584.00 575.87 12.00
1679 90.9200 594.00 582.35 11.00
1680 90.9700 617.00 589.90 11.00
1681 91.0200 593.00 598.73 11.00
1682 91.0700 611.00 609.15 11.00
1683 91.1200 635.00 621.54 11.00
1684 91.1700 656.00 637.15 11.00
1685 91.2200 669.00 649.97 12.00
1686 91.2700 651.00 672.35 11.00
1687 91.3200 695.00 700.45 12.00
1688 91.3700 736.00 737.44 12.00
1689 91.4200 771.00 791.09 12.00
1690 91.4700 826.00 881.60 13.00
1691 91.5200 984.00 1057.93 14.00
1692 91.5700 1340.00 1422.15 16.00
1693 91.6200 2113.00 2147.88 21.00
1694 91.6700 3539.00 3455.43 27.00
1695 91.7200 5813.00 5509.02 34.00
1696 91.7700 8757.00 8242.24 42.00
1697 91.8200 11508.00 11203.50 48.00
1698 91.8700 13442.00 13535.90 52.00
1699 91.9200 14066.00 14247.60 53.00
1700 91.9700 12930.00 12964.90 51.00
1701 92.0200 10526.00 10335.70 46.00
1702 92.0700 7510.00 7370.31 39.00
1703 92.1200 4815.00 4813.85 31.00
1704 92.1700 2856.00 2992.13 24.00
1705 92.2200 1700.00 1882.53 18.00
1706 92.2700 1173.00 1288.06 17.00
1707 92.3200 971.00 995.68 16.00
1708 92.3700 909.00 853.51 15.00
1709 92.4200 867.00 778.09 15.00
1710 92.4700 784.00 731.39 14.00
1711 92.5200 764.00 698.23 14.00
1712 92.5700 736.00 672.76 14.00
1713 92.6200 728.00 652.46 13.00
1714 92.6700 695.00 635.98 13.00
1715 92.7200 678.00 622.46 13.00
1716 92.7700 661.00 611.28 13.00
1717 92.8200 662.00 602.00 13.00
1718 92.8700 630.00 594.27 13.00
1719 92.9200 643.00 587.85 13.00
1720 92.9700 626.00 582.54 12.00
1721 93.0200 633.00 578.21 13.00
1722 93.0700 599.00 574.78 12.00
1723 93.1200 606.00 572.21 12.00
1724 93.1700 604.00 570.53 12.00
1725 93.2200 595.00 569.92 12.00
1726 93.2700 606.00 570.96 12.00
1727 93.3200 587.00 575.17 11.00
1728 93.3700 606.00 586.09 11.00
1729 93.4200 626.00 610.60 11.00
1730 93.4700 677.00 659.69 12.00
1731 93.5200 748.00 746.40 12.00
1732 93.5700 918.00 879.35 14.00
1733 93.6200 1066.00 1053.09 15.00
1734 93.6700 1257.00 1239.83 16.00
1735 93.7200 1408.00 1388.87 17.00
1736 93.7700 1445.00 1441.37 17.00
1737 93.8200 1328.00 1371.27 16.00
1738 93.8700 1245.00 1211.68 16.00
1739 93.9200 1020.00 1022.18 14.00
1740 93.9700 847.00 850.74 13.00
1741 94.0200 704.00 721.89 12.00
1742 94.0700 643.00 639.35 11.00
1743 94.1200 579.00 591.92 11.00
1744 94.1700 573.00 567.23 11.00
1745 94.2200 550.00 554.79 10.00
1746 94.2700 569.00 548.18 11.00
1747 94.3200 567.00 544.17 11.00
1748 94.3700 544.00 541.36 10.00
1749 94.4200 557.00 539.20 11.00
1750 94.4700 570.00 526.34 11.00
1751 94.5200 563.00 525.30 11.00
1752 94.5700 556.00 524.48 11.00
1753 94.6200 559.00 523.82 11.00
1754 94.6700 577.00 523.29 12.00
1755 94.7200 577.00 522.87 12.00
1756 94.7700 595.00 522.54 12.00
1757 94.8200 589.00 522.28 12.00
1758 94.8700 593.00 522.08 12.00
1759 94.9200 573.00 521.93 12.00
1760 94.9700 573.00 521.83 12.00
1761 95.0200 566.00 521.77 12.00
1762 95.0700 575.00 521.74 12.00
1763 95.1200 592.00 521.75 12.00
1764 95.1700 539.00 521.79 12.00
1765 95.2200 525.00 521.85 11.00
1766 95.2700 520.00 521.94 11.00
1767 95.3200 539.00 522.05 12.00
1768 95.3700 536.00 522.19 12.00
1769 95.4200 533.00 522.36 12.00
1770 95.4700 522.00 522.55 11.00
1771 95.5200 557.00 522.78 12.00
1772 95.5700 504.00 523.03 11.00
1773 95.6200 526.00 523.32 11.00
1774 95.6700 526.00 523.64 11.00
1775 95.7200 530.00 524.01 10.00
1776 95.7700 530.00 524.43 10.00
1777 95.8200 552.00 531.00 10.00
1778 95.8700 535.00 531.76 10.00
1779 95.9200 535.00 532.61 10.00
1780 95.9700 537.00 533.56 10.00
1781 96.0200 530.00 534.65 10.00
1782 96.0700 521.00 535.90 10.00
1783 96.1200 533.00 537.34 10.00
1784 96.1700 534.00 539.04 10.00
1785 96.2200 533.00 541.08 10.00
1786 96.2700 535.00 543.65 10.00
1787 96.3200 545.00 547.16 10.00
1788 96.3700 555.00 552.62 11.00
1789 96.4200 552.00 561.50 10.00
1790 96.4700 574.00 579.68 11.00
1791 96.5200 607.00 613.80 11.00
1792 96.5700 673.00 673.90 12.00
1793 96.6200 770.00 769.88 12.00
1794 96.6700 911.00 905.69 13.00
1795 96.7200 1097.00 1072.32 15.00
1796 96.7700 1252.00 1243.13 16.00
1797 96.8200 1343.00 1375.12 16.00
1798 96.8700 1389.00 1421.89 17.00
1799 96.9200 1315.00 1363.66 16.00
1800 96.9700 1209.00 1225.54 16.00
1801 97.0200 1076.00 1054.91 15.00
1802 97.0700 906.00 893.01 15.00
1803 97.1200 762.00 764.07 14.00
1804 97.1700 674.00 675.11 13.00
1805 97.2200 600.00 621.01 12.00
1806 97.2700 603.00 591.63 12.00
1807 97.3200 557.00 577.16 12.00
1808 97.3700 573.00 570.66 12.00
1809 97.4200 559.00 568.12 12.00
1810 97.4700 555.00 567.56 12.00
1811 97.5200 577.00 568.13 12.00
1812 97.5700 592.00 569.51 12.00
1813 97.6200 597.00 571.58 12.00
1814 97.6700 583.00 574.35 12.00
1815 97.7200 583.00 577.84 12.00
1816 97.7700 588.00 582.13 12.00
1817 97.8200 591.00 587.34 12.00
1818 97.8700 613.00 593.61 12.00
1819 97.9200 608.00 601.17 12.00
1820 97.9700 613.00 610.32 12.00
1821 98.0200 611.00 621.51 12.00
1822 98.0700 637.00 635.51 13.00
1823 98.1200 648.00 653.90 13.00
1824 98.1700 668.00 680.25 12.00
1825 98.2200 723.00 722.79 12.00
1826 98.2700 747.00 799.16 12.00
1827 98.3200 871.00 943.18 13.00
1828 98.3700 1103.00 1210.71 15.00
1829 98.4200 1633.00 1677.60 18.00
1830 98.4700 2404.00 2421.40 22.00
1831 98.5200 3510.00 3481.91 26.00
1832 98.5700 4830.00 4812.21 31.00
1833 98.6200 6224.00 6240.95 35.00
1834 98.6700 7287.00 7469.05 38.00
1835 98.7200 7834.00 8132.38 40.00
1836 98.7700 7761.00 7979.55 39.00
1837 98.8200 7093.00 7073.04 38.00
1838 98.8700 5864.00 5731.94 34.00
1839 98.9200 4461.00 4310.67 30.00
1840 98.9700 3124.00 3064.50 25.00
1841 99.0200 2104.00 2117.89 20.00
1842 99.0700 1370.00 1481.13 17.00
1843 99.1200 1019.00 1095.09 14.00
1844 99.1700 820.00 879.61 13.00
1845 99.2200 768.00 764.82 12.00
1846 99.2700 706.00 703.24 12.00
1847 99.3200 677.00 667.66 12.00
1848 99.3700 689.00 644.51 12.00
1849 99.4200 657.00 627.65 11.00
1850 99.4700 630.00 614.43 13.00
1851 99.5200 605.00 603.63 12.00
1852 99.5700 604.00 594.63 12.00
1853 99.6200 611.00 587.03 12.00
1854 99.6700 593.00 579.85 12.00
1855 99.7200 567.00 574.32 12.00
1856 99.7700 584.00 569.54 12.00
1857 99.8200 575.00 565.38 12.00
1858 99.8700 580.00 561.74 12.00
1859 99.9200 565.00 558.54 12.00
1860 99.9700 561.00 555.70 12.00
1861 100.0200 550.00 553.17 12.00
1862 100.0700 543.00 550.91 12.00
1863 100.1200 545.00 548.89 12.00
1864 100.1700 549.00 547.06 12.00
1865 100.2200 558.00 545.41 12.00
1866 100.2700 532.00 543.91 12.00
1867 100.3200 529.00 542.54 11.00
1868 100.3700 543.00 541.30 12.00
1869 100.4200 535.00 540.15 12.00
1870 100.4700 529.00 539.10 11.00
1871 100.5200 528.00 539.35 10.00
1872 100.5700 534.00 538.49 10.00
1873 100.6200 511.00 537.70 10.00
1874 100.6700 525.00 536.97 10.00
1875 100.7200 516.00 536.29 10.00
1876 100.7700 518.00 535.66 10.00
1877 100.8200 519.00 535.08 10.00
1878 100.8700 524.00 534.54 10.00
1879 100.9200 513.00 534.04 10.00
1880 100.9700 514.00 533.58 10.00
1881 101.0200 497.00 533.14 10.00
1882 101.0700 530.00 532.83 10.00
1883 101.1200 525.00 532.46 10.00
1884 101.1700 512.00 532.11 10.00
1885 101.2200 528.00 531.79 10.00
1886 101.2700 501.00 531.49 10.00
1887 101.3200 526.00 531.22 10.00
1888 101.3700 513.00 530.96 10.00
1889 101.4200 535.00 530.72 10.00
1890 101.4700 531.00 530.51 10.00
1891 101.5200 507.00 530.32 10.00
1892 101.5700 517.00 530.14 10.00
1893 101.6200 527.00 529.98 10.00
1894 101.6700 510.00 523.82 10.00
1895 101.7200 527.00 523.90 10.00
1896 101.7700 525.00 523.99 10.00
1897 101.8200 519.00 524.09 10.00
1898 101.8700 501.00 524.20 11.00
1899 101.9200 511.00 524.32 11.00
1900 101.9700 510.00 524.46 11.00
1901 102.0200 501.00 524.62 11.00
1902 102.0700 513.00 524.80 11.00
1903 102.1200 506.00 524.99 11.00
1904 102.1700 507.00 525.22 11.00
1905 102.2200 502.00 525.46 11.00
1906 102.2700 496.00 525.74 11.00
1907 102.3200 517.00 526.06 11.00
1908 102.3700 535.00 526.41 12.00
1909 102.4200 528.00 526.81 11.00
1910 102.4700 528.00 527.27 11.00
1911 102.5200 545.00 527.79 12.00
1912 102.5700 557.00 528.38 12.00
1913 102.6200 559.00 529.05 12.00
1914 102.6700 576.00 529.83 12.00
1915 102.7200 561.00 530.72 12.00
1916 102.7700 566.00 531.75 12.00
1917 102.8200 554.00 532.95 12.00
1918 102.8700 544.00 534.36 12.00
1919 102.9200 564.00 536.03 11.00
1920 102.9700 569.00 538.02 11.00
1921 103.0200 551.00 540.45 10.00
1922 103.0700 526.00 543.56 10.00
1923 103.1200 536.00 547.80 10.00
1924 103.1700 532.00 554.17 10.00
1925 103.2200 568.00 564.66 11.00
1926 103.2700 547.00 582.99 10.00
1927 103.3200 593.00 615.40 11.00
1928 103.3700 643.00 671.04 11.00
1929 103.4200 720.00 761.41 12.00
1930 103.4700 865.00 897.04 13.00
1931 103.5200 1087.00 1083.80 15.00
1932 103.5700 1346.00 1316.44 16.00
1933 103.6200 1575.00 1574.52 18.00
1934 103.6700 1817.00 1820.71 19.00
1935 103.7200 1973.00 2005.18 20.00
1936 103.7700 2006.00 2078.94 20.00
1937 103.8200 1970.00 2019.19 20.00
1938 103.8700 1860.00 1845.27 19.00
1939 103.9200 1642.00 1605.00 18.00
1940 103.9700 1394.00 1349.43 17.00
1941 104.0200 1144.00 1118.19 15.00
1942 104.0700 933.00 934.46 14.00
1943 104.1200 757.00 805.52 12.00
1944 104.1700 695.00 726.76 12.00
1945 104.2200 650.00 686.81 11.00
1946 104.2700 623.00 672.33 12.00
1947 104.3200 624.00 670.70 12.00
1948 104.3700 633.00 671.53 13.00
1949 104.4200 636.00 667.54 13.00
1950 104.4700 616.00 655.72 12.00
1951 104.5200 592.00 637.15 12.00
1952 104.5700 601.00 615.11 12.00
1953 104.6200 574.00 593.01 12.00
1954 104.6700 552.00 573.39 12.00
1955 104.7200 534.00 557.61 12.00
1956 104.7700 548.00 545.92 12.00
1957 104.8200 533.00 537.84 12.00
1958 104.8700 511.00 532.49 11.00
1959 104.9200 499.00 529.02 11.00
1960 104.9700 526.00 526.73 11.00
1961 105.0200 508.00 525.12 11.00
1962 105.0700 499.00 523.91 11.00
1963 105.1200 506.00 522.93 11.00
1964 105.1700 517.00 522.40 11.00
1965 105.2200 511.00 521.68 11.00
1966 105.2700 501.00 521.03 11.00
1967 105.3200 503.00 520.46 10.00
1968 105.3700 502.00 519.93 10.00
1969 105.4200 510.00 519.46 10.00
1970 105.4700 501.00 519.03 10.00
1971 105.5200 523.00 518.63 10.00
1972 105.5700 512.00 518.28 10.00
1973 105.6200 522.00 517.96 10.00
1974 105.6700 510.00 517.66 10.00
1975 105.7200 508.00 517.40 10.00
1976 105.7700 508.00 517.17 10.00
1977 105.8200 515.00 516.97 10.00
1978 105.8700 515.00 516.80 10.00
1979 105.9200 517.00 516.66 10.00
1980 105.9700 517.00 516.56 10.00
1981 106.0200 516.00 516.50 10.00
1982 106.0700 481.00 516.48 10.00
1983 106.1200 501.00 516.52 10.00
1984 106.1700 498.00 516.62 10.00
1985 106.2200 491.00 516.82 10.00
1986 106.2700 486.00 517.19 10.00
1987 106.3200 511.00 517.83 10.00
1988 106.3700 503.00 518.99 10.00
1989 106.4200 510.00 521.08 10.00
1990 106.4700 496.00 524.79 10.00
1991 106.5200 527.00 531.10 10.00
1992 106.5700 526.00 541.29 10.00
1993 106.6200 555.00 556.71 11.00
1994 106.6700 569.00 578.36 12.00
1995 106.7200 602.00 606.39 12.00
1996 106.7700 629.00 639.52 13.00
1997 106.8200 687.00 674.69 13.00
1998 106.8700 685.00 707.11 13.00
1999 106.9200 710.00 730.85 13.00
2000 106.9700 728.00 740.36 13.00
2001 107.0200 736.00 733.08 14.00
2002 107.0700 712.00 709.77 13.00
2003 107.1200 668.00 678.08 13.00
2004 107.1700 662.00 642.78 13.00
2005 107.2200 620.00 608.87 12.00
2006 107.2700 588.00 579.69 12.00
2007 107.3200 587.00 556.79 12.00
2008 107.3700 519.00 540.21 11.00
2009 107.4200 521.00 529.05 11.00
2010 107.4700 518.00 521.98 11.00
2011 107.5200 520.00 517.72 11.00
2012 107.5700 513.00 515.21 11.00
2013 107.6200 510.00 513.74 11.00
2014 107.6700 508.00 512.85 11.00
2015 107.7200 496.00 512.29 10.00
2016 107.7700 495.00 511.83 10.00
2017 107.8200 517.00 511.60 10.00
2018 107.8700 502.00 511.47 10.00
2019 107.9200 512.00 511.44 10.00
2020 107.9700 491.00 511.50 10.00
2021 108.0200 510.00 511.66 10.00
2022 108.0700 516.00 511.94 10.00
2023 108.1200 525.00 512.38 10.00
2024 108.1700 520.00 515.44 10.00
2025 108.2200 512.00 516.61 10.00
2026 108.2700 523.00 518.51 10.00
2027 108.3200 527.00 521.72 10.00
2028 108.3700 516.00 527.16 10.00
2029 108.4200 526.00 536.23 10.00
2030 108.4700 526.00 550.79 10.00
2031 108.5200 558.00 572.97 11.00
2032 108.5700 600.00 604.77 11.00
2033 108.6200 653.00 647.32 11.00
2034 108.6700 689.00 700.05 12.00
2035 108.7200 762.00 760.03 12.00
2036 108.7700 806.00 821.56 13.00
2037 108.8200 849.00 876.46 13.00
2038 108.8700 885.00 915.19 13.00
2039 108.9200 895.00 929.37 13.00
2040 108.9700 903.00 915.56 13.00
2041 109.0200 870.00 877.15 13.00
2042 109.0700 809.00 822.44 13.00
2043 109.1200 780.00 760.92 14.00
2044 109.1700 685.00 700.81 13.00
2045 109.2200 648.00 647.83 13.00
2046 109.2700 626.00 604.97 12.00
2047 109.3200 551.00 572.84 12.00
2048 109.3700 523.00 550.35 11.00
2049 109.4200 540.00 535.52 12.00
2050 109.4700 532.00 526.23 12.00
2051 109.5200 522.00 520.60 11.00
2052 109.5700 517.00 517.24 11.00
2053 109.6200 525.00 515.20 11.00
2054 109.6700 509.00 513.92 11.00
2055 109.7200 526.00 513.06 11.00
2056 109.7700 523.00 512.45 11.00
2057 109.8200 520.00 512.00 11.00
2058 109.8700 514.00 511.67 11.00
2059 109.9200 506.00 512.67 11.00
2060 109.9700 498.00 512.55 11.00
2061 110.0200 527.00 512.49 11.00
2062 110.0700 495.00 512.50 11.00
2063 110.1200 519.00 512.58 10.00
2064 110.1700 533.00 512.71 10.00
2065 110.2200 515.00 512.90 10.00
2066 110.2700 513.00 513.16 10.00
2067 110.3200 502.00 513.47 10.00
2068 110.3700 500.00 513.84 10.00
2069 110.4200 517.00 514.28 10.00
2070 110.4700 529.00 514.79 10.00
2071 110.5200 514.00 515.32 10.00
2072 110.5700 508.00 515.98 10.00
2073 110.6200 518.00 516.74 10.00
2074 110.6700 529.00 517.59 10.00
2075 110.7200 546.00 518.54 10.00
2076 110.7700 544.00 519.61 10.00
2077 110.8200 529.00 520.81 10.00
2078 110.8700 512.00 522.15 10.00
2079 110.9200 517.00 523.67 10.00
2080 110.9700 529.00 525.38 10.00
2081 111.0200 511.00 527.30 10.00
2082 111.0700 536.00 529.49 10.00
2083 111.1200 515.00 531.98 10.00
2084 111.1700 549.00 534.83 10.00
2085 111.2200 536.00 538.12 10.00
2086 111.2700 549.00 541.98 10.00
2087 111.3200 546.00 546.63 10.00
2088 111.3700 554.00 552.47 10.00
2089 111.4200 550.00 560.23 10.00
2090 111.4700 573.00 571.24 12.00
2091 111.5200 585.00 587.86 12.00
2092 111.5700 591.00 614.01 12.00
2093 111.6200 612.00 655.75 12.00
2094 111.6700 682.00 721.77 13.00
2095 111.7200 785.00 823.36 14.00
2096 111.7700 948.00 973.46 15.00
2097 111.8200 1207.00 1184.54 17.00
2098 111.8700 1509.00 1465.22 19.00
2099 111.9200 1886.00 1815.92 22.00
2100 111.9700 2316.00 2225.11 24.00
2101 112.0200 2738.00 2666.43 26.00
2102 112.0700 3167.00 3098.43 28.00
2103 112.1200 3427.00 3467.91 29.00
2104 112.1700 3621.00 3717.07 30.00
2105 112.2200 3770.00 3799.38 31.00
2106 112.2700 3717.00 3698.13 30.00
2107 112.3200 3510.00 3434.51 30.00
2108 112.3700 3237.00 3056.95 28.00
2109 112.4200 2928.00 2623.00 27.00
2110 112.4700 2497.00 2184.60 25.00
2111 112.5200 2085.00 1781.63 23.00
2112 112.5700 1609.00 1438.84 20.00
2113 112.6200 1267.00 1166.33 18.00
2114 112.6700 1009.00 962.41 16.00
2115 112.7200 807.00 818.47 14.00
2116 112.7700 709.00 721.69 13.00
2117 112.8200 664.00 659.28 13.00
2118 112.8700 621.00 620.24 12.00
2119 112.9200 611.00 596.20 12.00
2120 112.9700 610.00 581.57 12.00
2121 113.0200 603.00 572.18 12.00
2122 113.0700 600.00 566.04 12.00
2123 113.1200 588.00 561.90 12.00
2124 113.1700 573.00 559.11 12.00
2125 113.2200 601.00 557.34 12.00
2126 113.2700 591.00 556.48 12.00
2127 113.3200 600.00 556.55 12.00
2128 113.3700 604.00 557.74 12.00
2129 113.4200 584.00 560.50 12.00
2130 113.4700 593.00 565.64 12.00
2131 113.5200 575.00 574.55 12.00
2132 113.5700 601.00 589.45 12.00
2133 113.6200 612.00 613.62 12.00
2134 113.6700 650.00 651.51 13.00
2135 113.7200 716.00 708.68 13.00
2136 113.7700 831.00 791.19 14.00
2137 113.8200 941.00 904.57 15.00
2138 113.8700 1148.00 1052.40 20.00
2139 113.9200 1405.00 1234.37 22.00
2140 113.9700 1526.00 1444.77 23.00
2141 114.0200 1812.00 1671.43 25.00
2142 114.0700 1934.00 1895.51 25.00
2143 114.1200 2052.00 2092.86 26.00
2144 114.1700 2218.00 2236.78 27.00
2145 114.2200 2295.00 2304.16 28.00
2146 114.2700 2330.00 2283.27 28.00
2147 114.3200 2252.00 2178.99 27.00
2148 114.3700 2133.00 2010.48 27.00
2149 114.4200 1972.00 1804.14 26.00
2150 114.4700 1721.00 1586.34 24.00
2151 114.5200 1551.00 1379.27 23.00
2152 114.5700 1329.00 1198.63 21.00
2153 114.6200 1140.00 1052.96 19.00
2154 114.6700 997.00 944.18 18.00
2155 114.7200 881.00 868.92 17.00
2156 114.7700 775.00 821.21 16.00
2157 114.8200 791.00 790.93 16.00
2158 114.8700 769.00 770.50 16.00
2159 114.9200 722.00 753.04 15.00
2160 114.9700 736.00 734.18 16.00
2161 115.0200 682.00 712.24 15.00
2162 115.0700 673.00 687.56 15.00
2163 115.1200 645.00 661.58 15.00
2164 115.1700 665.00 636.02 15.00
2165 115.2200 648.00 612.40 15.00
2166 115.2700 593.00 591.82 14.00
2167 115.3200 584.00 574.81 14.00
2168 115.3700 598.00 561.43 14.00
2169 115.4200 576.00 551.40 14.00
2170 115.4700 543.00 544.12 13.00
2171 115.5200 542.00 539.04 13.00
2172 115.5700 565.00 535.56 14.00
2173 115.6200 554.00 533.21 14.00
2174 115.6700 556.00 531.64 14.00
2175 115.7200 543.00 530.57 13.00
2176 115.7700 528.00 529.83 13.00
2177 115.8200 524.00 529.33 13.00
2178 115.8700 539.00 528.98 13.00
2179 115.9200 538.00 528.76 13.00
2180 115.9700 541.00 528.64 13.00
2181 116.0200 557.00 528.61 14.00
2182 116.0700 565.00 528.65 14.00
2183 116.1200 551.00 528.76 14.00
2184 116.1700 542.00 528.93 13.00
2185 116.2200 541.00 529.17 13.00
2186 116.2700 530.00 527.11 16.00
2187 116.3200 535.00 527.53 16.00
2188 116.3700 566.00 528.00 17.00
2189 116.4200 537.00 528.53 16.00
2190 116.4700 532.00 529.13 16.00
2191 116.5200 537.00 529.79 16.00
2192 116.5700 525.00 530.53 16.00
2193 116.6200 540.00 531.35 16.00
2194 116.6700 564.00 532.28 17.00
2195 116.7200 548.00 533.37 17.00
2196 116.7700 550.00 534.70 17.00
2197 116.8200 530.00 536.37 16.00
2198 116.8700 536.00 538.60 16.00
2199 116.9200 549.00 541.70 17.00
2200 116.9700 530.00 546.09 16.00
2201 117.0200 549.00 552.38 17.00
2202 117.0700 533.00 561.33 16.00
2203 117.1200 576.00 573.81 17.00
2204 117.1700 570.00 590.73 17.00
2205 117.2200 585.00 612.87 17.00
2206 117.2700 633.00 640.67 18.00
2207 117.3200 653.00 674.02 18.00
2208 117.3700 683.00 712.08 18.00
2209 117.4200 755.00 753.10 19.00
2210 117.4700 806.00 794.47 20.00
2211 117.5200 855.00 832.72 21.00
2212 117.5700 813.00 863.98 20.00
2213 117.6200 887.00 884.41 21.00
2214 117.6700 879.00 891.21 21.00
2215 117.7200 872.00 883.52 21.00
2216 117.7700 794.00 862.67 20.00
2217 117.8200 871.00 831.75 21.00
2218 117.8700 845.00 796.21 21.00
2219 117.9200 750.00 756.73 19.00
2220 117.9700 743.00 718.11 19.00
2221 118.0200 684.00 682.88 18.00
2222 118.0700 654.00 652.57 18.00
2223 118.1200 582.00 627.88 17.00
2224 118.1700 567.00 608.82 17.00
2225 118.2200 568.00 594.86 17.00
2226 118.2700 555.00 585.21 17.00
2227 118.3200 542.00 578.96 16.00
2228 118.3700 563.00 575.27 17.00
2229 118.4200 563.00 573.43 17.00
2230 118.4700 528.00 572.87 16.00
2231 118.5200 543.00 571.95 16.00
2232 118.5700 519.00 572.93 16.00
2233 118.6200 554.00 574.38 17.00
2234 118.6700 540.00 576.23 23.00
2235 118.7200 541.00 578.49 23.00
2236 118.7700 547.00 581.26 23.00
2237 118.8200 499.00 584.72 22.00
2238 118.8700 569.00 589.23 24.00
2239 118.9200 610.00 595.32 25.00
2240 118.9700 600.00 603.84 24.00
2241 119.0200 528.00 615.98 23.00
2242 119.0700 572.00 633.39 24.00
2243 119.1200 599.00 658.17 24.00
2244 119.1700 670.00 692.85 26.00
2245 119.2200 675.00 740.18 26.00
2246 119.2700 789.00 802.69 28.00
2247 119.3200 882.00 882.68 30.00
2248 119.3700 989.00 980.95 31.00
2249 119.4200 1050.00 1096.67 32.00
2250 119.4700 1205.00 1226.74 35.00
2251 119.5200 1282.00 1365.54 36.00
2252 119.5700 1461.00 1504.78 38.00
2253 119.6200 1686.00 1634.07 41.00
2254 119.6700 1740.00 1741.58 42.00
2255 119.7200 1692.00 1815.71 41.00
2256 119.7700 1845.00 1847.45 43.00
2257 119.8200 1740.00 1832.76 42.00
2258 119.8700 1821.00 1774.22 43.00
2259 119.9200 1649.00 1679.85 41.00
2260 119.9700 1624.00 1560.80 40.00
2261 120.0200 1587.00 1429.08 40.00
2262 120.0700 1343.00 1295.57 37.00
2263 120.1200 1252.00 1169.13 35.00
2264 120.1700 1132.00 1056.07 34.00
2265 120.2200 939.00 960.01 31.00
2266 120.2700 868.00 882.21 29.00
2267 120.3200 821.00 821.84 29.00
2268 120.3700 743.00 776.75 27.00
2269 120.4200 721.00 744.09 27.00
2270 120.4700 663.00 720.78 26.00
2271 120.5200 604.00 704.06 25.00
2272 120.5700 678.00 691.74 26.00
2273 120.6200 671.00 682.23 26.00
2274 120.6700 618.00 674.53 25.00
2275 120.7200 626.00 668.09 25.00
2276 120.7700 664.00 662.60 26.00
2277 120.8200 591.00 657.98 24.00
2278 120.8700 628.00 654.21 25.00
2279 120.9200 574.00 651.26 24.00
2280 120.9700 625.00 649.14 25.00
2281 121.0200 605.00 647.79 25.00
loop_
_pd_proc_info_excluded_regions
'from 0 to 7.000'
loop_
_refln_index_h
_refln_index_k
_refln_index_l
_refln_F_squared_calc
_refln_F_squared_meas
_refln_observed_status
_refln_d_spacing
1 1 1 1968.89 2011.34 o 4.821157
2 0 2 2337.77 2345.92 o 2.952343
1 1 3 6640.51 6749.26 o 2.517767
2 2 2 3913.56 3956.66 o 2.410578
0 0 4 56506.13 56236.35 o 2.087622
3 1 3 62.10 43.59 o 1.915733
2 2 4 1735.12 1773.39 o 1.704536
1 1 5 16863.71 16961.74 o 1.607052
3 3 3 892.28 897.47 o 1.607052
4 0 4 96871.49 96555.13 o 1.476172
3 1 5 1787.86 1777.20 o 1.411490
4 2 4 155.48 135.89 o 1.391748
2 0 6 1261.91 1201.04 o 1.320328
3 3 5 6529.13 6373.95 o 1.273438
2 2 6 1503.40 1423.36 o 1.258883
4 4 4 44006.92 44267.59 o 1.205289
1 1 7 27.90 27.64 o 1.169302
5 1 5 7292.98 7224.29 o 1.169302
4 2 6 2517.73 2546.82 o 1.115881
5 3 5 14735.73 15109.19 o 1.087141
3 1 7 1130.69 1159.35 o 1.087141
0 0 8 79166.02 76761.82 o 1.043811
3 3 7 2283.01 2240.47 o 1.020175
4 4 6 132.38 121.21 o 1.012645
6 0 6 4015.22 3866.11 o 0.984115
2 2 8 1943.39 1871.22 o 0.984115
5 5 5 25193.26 25304.87 o 0.964231
5 1 7 5896.77 5922.90 o 0.964231
6 2 6 332.68 340.98 o 0.957867
4 0 8 34318.93 33908.92 o 0.933613
5 3 7 0.06 0.05 o 0.916585
1 1 9 6329.34 6086.12 o 0.916585
4 2 8 479.31 551.53 o 0.911113
6 4 6 400.58 405.59 o 0.890165
3 1 9 13614.69 13506.11 o 0.875369
4 4 8 64881.47 65570.23 o 0.852268
7 1 7 1496.55 1508.01 o 0.839256
3 3 9 1736.81 1750.12 o 0.839256
5 5 7 1268.18 1277.90 o 0.839256
6 2 8 1105.43 1088.76 o 0.818833
2 0 10 2583.77 2544.80 o 0.818833
7 3 7 3.30 3.27 o 0.807272
5 1 9 21779.45 21579.16 o 0.807272
6 6 6 0.38 0.36 o 0.803526
2 2 10 0.61 0.58 o 0.803526
5 3 9 5087.51 5034.15 o 0.778687
6 4 8 407.24 365.72 o 0.775323
4 2 10 816.06 789.63 o 0.762292
7 5 7 1809.78 1723.62 o 0.752938
1 1 11 1346.48 1282.38 o 0.752938
8 0 8 53395.89 55430.28 o 0.738086
7 1 9 1373.44 1455.55 o 0.729586
5 5 9 10236.72 10848.71 o 0.729586
3 1 11 1115.93 1182.64 o 0.729586
4 4 10 95.56 105.14 o 0.726817
8 2 8 1477.13 1625.14 o 0.726817
6 6 8 3155.44 3008.30 o 0.716048
6 0 10 70.12 66.86 o 0.716048
7 3 9 6087.72 6025.62 o 0.708279
3 3 11 16.09 15.93 o 0.708279
6 2 10 204.93 211.34 o 0.705745
