#------------------------------------------------------------------------------
#$Date: 2016-02-16 22:30:59 +0200 (Tue, 16 Feb 2016) $
#$Revision: 176467 $
#$URL: svn://www.crystallography.net/cod/cif/4/00/17/4001779.cif $
#------------------------------------------------------------------------------
#
# This file is available in the Crystallography Open Database (COD),
# http://www.crystallography.net/
#
# All data on this site have been placed in the public domain by the
# contributors.
#
data_4001779
loop_
_publ_author_name
'Fukuda, Koichiro'
'Asaka, Toru'
'Hara, Shinji'
'Oyabu, Masayuki'
'Berghout, Abid'
'B\'echade, Emilie'
'Masson, Olivier'
'Julien, Isabelle'
'Thomas, Philippe'
_publ_section_title
;
 Crystal Structure and Oxide-Ion Conductivity alongc-Axis of Si-Deficient
 Apatite-Type Lanthanum Silicate
;
_journal_issue                   10
_journal_name_full               'Chemistry of Materials'
_journal_page_first              2154
_journal_paper_doi               10.1021/cm400892p
_journal_volume                  25
_journal_year                    2013
_chemical_formula_moiety         'La9.50 O26 Si5.87'
_chemical_formula_sum            'La9.5 O26 Si5.87'
_chemical_formula_weight         1900.8
_chemical_name_systematic        ' ?'
_space_group_IT_number           176
_symmetry_cell_setting           hexagonal
_symmetry_Int_Tables_number      176
_symmetry_space_group_name_Hall  '-P 6c'
_symmetry_space_group_name_H-M   'P 63/m'
_cell_angle_alpha                90
_cell_angle_beta                 90
_cell_angle_gamma                120
_cell_formula_units_Z            1
_cell_length_a                   9.70940(10)
_cell_length_b                   9.70940(10)
_cell_length_c                   7.18160(10)
_cell_measurement_reflns_used    6611
_cell_measurement_temperature    293
_cell_measurement_theta_max      46.08
_cell_measurement_theta_min      2.41
_cell_volume                     586.323(12)
_diffrn_ambient_temperature      293
_diffrn_measured_fraction_theta_full 0.99
_diffrn_measured_fraction_theta_max 0.99
_diffrn_measurement_device_type  'Bruker APEXII CCD'
_diffrn_measurement_method       '\f and \w'
_diffrn_radiation_source         'X-ray tube'
_diffrn_radiation_type           'Mo K\a'
_diffrn_radiation_wavelength     0.71073
_diffrn_reflns_av_R_equivalents  0.0282
_diffrn_reflns_av_sigmaI/netI    0.0197
_diffrn_reflns_limit_h_max       17
_diffrn_reflns_limit_h_min       -19
_diffrn_reflns_limit_k_max       18
_diffrn_reflns_limit_k_min       -18
_diffrn_reflns_limit_l_max       13
_diffrn_reflns_limit_l_min       -13
_diffrn_reflns_number            17867
_diffrn_reflns_theta_full        44.7
_diffrn_reflns_theta_max         44.7
_diffrn_reflns_theta_min         2.42
_exptl_absorpt_coefficient_mu    17.313
_exptl_absorpt_correction_T_max  0.844
_exptl_absorpt_correction_T_min  0.607
_exptl_absorpt_correction_type   multi-scan
_exptl_absorpt_process_details   '(SADABS; Sheldrick, 1996)'
_exptl_crystal_colour            colourless
_exptl_crystal_density_diffrn    5.384
_exptl_crystal_description       prism
_exptl_crystal_F_000             832.0
_exptl_crystal_size_max          0.025
_exptl_crystal_size_mid          0.015
_exptl_crystal_size_min          0.010
_refine_diff_density_max         0.97
_refine_diff_density_min         -0.60
_refine_ls_extinction_coef       590(50)
_refine_ls_extinction_method
'B-C type 1 Gaussian isotropic (Becker & Coppens, 1974)'
_refine_ls_goodness_of_fit_gt    1.04
_refine_ls_goodness_of_fit_ref   0.98
_refine_ls_number_constraints    1
_refine_ls_number_parameters     75
_refine_ls_number_reflns         1664
_refine_ls_number_restraints     0
_refine_ls_R_factor_all          0.0267
_refine_ls_R_factor_gt           0.0156
_refine_ls_shift/su_max          0.0353
_refine_ls_shift/su_mean         0.0043
_refine_ls_structure_factor_coef F
_refine_ls_weighting_details     w=1/(\s^2^(F)+0.0001F^2^)
_refine_ls_weighting_scheme      sigma
_refine_ls_wR_factor_gt          0.0173
_refine_ls_wR_factor_ref         0.0185
_reflns_number_gt                1312
_reflns_number_total             1664
_reflns_threshold_expression     I>3\s(I)
_cod_data_source_file            cm400892p_si_001.cif
_cod_data_source_block           I
_cod_original_cell_volume        586.322(12)
_cod_original_formula_sum        'La9.50 O26 Si5.87'
_cod_database_code               4001779
loop_
_symmetry_equiv_pos_site_id
_symmetry_equiv_pos_as_xyz
1 x,y,z
2 -y,x-y,z
3 -x+y,-x,z
4 -x,-y,z+1/2
5 y,-x+y,z+1/2
6 x-y,x,z+1/2
7 -x,-y,-z
8 y,-x+y,-z
9 x-y,x,-z
10 x,y,-z+1/2
11 -y,x-y,-z+1/2
12 -x+y,-x,-z+1/2
loop_
_atom_site_label
_atom_site_type_symbol
_atom_site_fract_x
_atom_site_fract_y
_atom_site_fract_z
_atom_site_adp_type
_atom_site_U_iso_or_equiv
_atom_site_symmetry_multiplicity
_atom_site_occupancy
_atom_site_calc_flag
La1 La 0.333333 0.666667 0.00071(6) Uani 0.01497(14) 4 0.8756(13) d
La2 La 0.23926(3) 0.22711(3) 0.25 Uani 0.01179(13) 6 1 d
Si3 Si 0.03001(6) 0.40278(7) 0.25 Uani 0.00768(16) 6 0.9788(6) d
O1 O 0.12231(18) 0.59545(18) 0.25 Uani 0.0160(5) 6 1 d
O2 O 0.4863(2) 0.16131(19) 0.25 Uani 0.0192(6) 6 1 d
O3a O 0.059(3) 0.303(3) 0.089(2) Uani 0.011(4) 12 0.20(3) d
O3b O 0.0965(8) 0.3547(12) 0.0659(5) Uani 0.0160(15) 12 0.80(3) d
O4 O 0 0 0.25 Uani 0.072(3) 2 1 d
loop_
_atom_site_aniso_label
_atom_site_aniso_type_symbol
_atom_site_aniso_U_11
_atom_site_aniso_U_22
_atom_site_aniso_U_33
_atom_site_aniso_U_12
_atom_site_aniso_U_13
_atom_site_aniso_U_23
La1 La 0.01011(17) 0.01011(17) 0.0247(3) 0.00505(8) 0 0
La2 La 0.01260(17) 0.01277(16) 0.01224(16) 0.00804(11) 0 0
Si3 Si 0.0069(2) 0.0090(2) 0.00721(18) 0.00395(17) 0 0
O1 O 0.0153(7) 0.0100(6) 0.0238(7) 0.0071(5) 0 0
O2 O 0.0230(8) 0.0095(6) 0.0178(6) 0.0026(6) 0 0
O3a O 0.012(4) 0.013(6) 0.009(2) 0.008(5) -0.001(3) -0.003(3)
O3b O 0.0178(13) 0.024(2) 0.0090(7) 0.0125(18) -0.0015(8) -0.0048(10)
O4 O 0.0183(11) 0.0183(11) 0.180(7) 0.0091(5) 0 0
loop_
_atom_type_symbol
_atom_type_scat_dispersion_real
_atom_type_scat_dispersion_imag
_atom_type_scat_source
_atom_type_scat_Cromer_Mann_a1
_atom_type_scat_Cromer_Mann_b1
_atom_type_scat_Cromer_Mann_a2
_atom_type_scat_Cromer_Mann_b2
_atom_type_scat_Cromer_Mann_a3
_atom_type_scat_Cromer_Mann_b3
_atom_type_scat_Cromer_Mann_a4
_atom_type_scat_Cromer_Mann_b4
_atom_type_scat_Cromer_Mann_c
La -0.2871 2.4523 'International Tables Vol C tables 4.2.6.8 and 6.1.1.4'
20.577999 2.94817 19.599001 0.244475 11.3727 18.7726 3.28719 133.123993 2.14678
O 0.0106 0.0060 'International Tables Vol C tables 4.2.6.8 and 6.1.1.4' 3.0485
13.2771 2.2868 5.7011 1.5463 0.3239 0.867 32.908901 0.2508
Si 0.0817 0.0704 'International Tables Vol C tables 4.2.6.8 and 6.1.1.4' 6.2915
2.4386 3.0353 32.333698 1.9891 0.6785 1.541 81.693703 1.1407
loop_
_geom_angle_atom_site_label_1
_geom_angle_atom_site_label_2
_geom_angle_atom_site_label_3
_geom_angle_site_symmetry_1
_geom_angle_site_symmetry_3
_geom_angle
O1 La1 O1 . 2_665 75.90(6)
O1 La1 O1 . 3_565 75.90(5)
O1 La1 O2 . 4_664 153.43(7)
O1 La1 O2 . 5_564 93.19(5)
O1 La1 O2 . 6_554 125.49(5)
O1 La1 O3b . . 57.93(17)
O1 La1 O3b . 2_665 125.26(9)
O1 La1 O3b . 3_565 66.27(14)
O1 La1 O1 2_665 3_565 75.90(7)
O1 La1 O2 2_665 4_664 125.49(6)
O1 La1 O2 2_665 5_564 153.43(6)
O1 La1 O2 2_665 6_554 93.19(7)
O1 La1 O3b 2_665 . 66.27(16)
O1 La1 O3b 2_665 2_665 57.93(17)
O1 La1 O3b 2_665 3_565 125.26(10)
O1 La1 O2 3_565 4_664 93.19(4)
O1 La1 O2 3_565 5_564 125.49(8)
O1 La1 O2 3_565 6_554 153.43(9)
O1 La1 O3b 3_565 . 125.26(9)
O1 La1 O3b 3_565 2_665 66.3(2)
O1 La1 O3b 3_565 3_565 57.93(17)
O2 La1 O2 4_664 5_564 73.28(5)
O2 La1 O2 4_664 6_554 73.28(5)
O2 La1 O3b 4_664 . 140.92(11)
O2 La1 O3b 4_664 2_665 68.69(14)
O2 La1 O3b 4_664 3_565 87.35(14)
O2 La1 O2 5_564 6_554 73.28(8)
O2 La1 O3b 5_564 . 87.35(15)
O2 La1 O3b 5_564 2_665 140.92(10)
O2 La1 O3b 5_564 3_565 68.69(15)
O2 La1 O3b 6_554 . 68.69(14)
O2 La1 O3b 6_554 2_665 87.3(2)
O2 La1 O3b 6_554 3_565 140.92(12)
O3b La1 O3b . 2_665 117.2(3)
O3b La1 O3b . 3_565 117.2(3)
O3b La1 O3b 2_665 3_565 117.2(3)
O1 La2 O2 2_665 . 98.10(6)
O1 La2 O3b 2_665 . 68.75(15)
O1 La2 O3b 2_665 5_555 82.6(2)
O1 La2 O3b 2_665 8_555 82.6(2)
O1 La2 O3b 2_665 10_555 68.75(15)
O1 La2 O3a 2_665 . 78.2(5)
O1 La2 O3a 2_665 3_555 139.8(5)
O1 La2 O3a 2_665 5_555 86.0(8)
O1 La2 O3a 2_665 8_555 86.0(8)
O1 La2 O3a 2_665 10_555 78.2(5)
O1 La2 O3a 2_665 12_555 139.8(5)
O1 La2 O4 2_665 . 150.82(6)
O2 La2 O3b . . 145.94(12)
O2 La2 O3b . 5_555 68.8(3)
O2 La2 O3b . 8_555 68.8(3)
O2 La2 O3b . 10_555 145.94(12)
O2 La2 O3a . . 152.0(5)
O2 La2 O3a . 3_555 51.5(7)
O2 La2 O3a . 5_555 78.5(9)
O2 La2 O3a . 8_555 78.5(9)
O2 La2 O3a . 10_555 152.0(5)
O2 La2 O3a . 12_555 51.5(7)
O2 La2 O4 . . 111.08(3)
O3b La2 O3b . 5_555 135.6(3)
O3b La2 O3b . 8_555 78.2(3)
O3b La2 O3b . 10_555 60.28(19)
O3b La2 O3a . . 10.3(5)
O3b La2 O3a . 3_555 119.6(6)
O3b La2 O3a . 5_555 129.1(10)
O3b La2 O3a . 8_555 69.6(10)
O3b La2 O3a . 10_555 58.8(5)
O3b La2 O3a . 12_555 151.3(6)
O3b La2 O4 . . 86.20(14)
O3b La2 O3b 5_555 8_555 132.1(3)
O3b La2 O3b 5_555 10_555 78.2(3)
O3b La2 O3a 5_555 . 136.7(6)
O3b La2 O3a 5_555 3_555 104.4(6)
O3b La2 O3a 5_555 5_555 11.1(7)
O3b La2 O3a 5_555 8_555 143.2(7)
O3b La2 O3a 5_555 10_555 83.2(5)
O3b La2 O3a 5_555 12_555 63.3(4)
O3b La2 O4 5_555 . 107.48(18)
O3b La2 O3b 8_555 10_555 135.6(3)
O3b La2 O3a 8_555 . 83.2(5)
O3b La2 O3a 8_555 3_555 63.3(4)
O3b La2 O3a 8_555 5_555 143.2(7)
O3b La2 O3a 8_555 8_555 11.1(7)
O3b La2 O3a 8_555 10_555 136.7(6)
O3b La2 O3a 8_555 12_555 104.4(6)
O3b La2 O4 8_555 . 107.48(18)
O3b La2 O3a 10_555 . 58.8(5)
O3b La2 O3a 10_555 3_555 151.3(6)
O3b La2 O3a 10_555 5_555 69.6(10)
O3b La2 O3a 10_555 8_555 129.1(10)
O3b La2 O3a 10_555 10_555 10.3(5)
O3b La2 O3a 10_555 12_555 119.6(6)
O3b La2 O4 10_555 . 86.20(14)
O3a La2 O3a . 3_555 115.3(8)
O3a La2 O3a . 5_555 128.3(11)
O3a La2 O3a . 8_555 73.5(10)
O3a La2 O3a . 10_555 55.2(7)
O3a La2 O3a . 12_555 141.4(8)
O3a La2 O4 . . 76.0(5)
O3a La2 O3a 3_555 5_555 108.4(11)
O3a La2 O3a 3_555 8_555 64.6(10)
O3a La2 O3a 3_555 10_555 141.4(8)
O3a La2 O3a 3_555 12_555 44.9(5)
O3a La2 O4 3_555 . 65.5(6)
O3a La2 O3a 5_555 8_555 154.3(10)
O3a La2 O3a 5_555 10_555 73.5(10)
O3a La2 O3a 5_555 12_555 64.6(10)
O3a La2 O4 5_555 . 99.4(6)
O3a La2 O3a 8_555 10_555 128.3(11)
O3a La2 O3a 8_555 12_555 108.4(11)
O3a La2 O4 8_555 . 99.4(6)
O3a La2 O3a 10_555 12_555 115.3(8)
O3a La2 O4 10_555 . 76.0(5)
O3a La2 O4 12_555 . 65.5(6)
O1 Si3 O2 . 2_555 112.46(13)
O1 Si3 O3b . . 105.0(3)
O1 Si3 O3b . 10_555 105.0(3)
O1 Si3 O3a . . 121.9(7)
O1 Si3 O3a . 10_555 121.9(7)
O2 Si3 O3b 2_555 . 113.0(2)
O2 Si3 O3b 2_555 10_555 113.0(2)
O2 Si3 O3a 2_555 . 102.9(9)
O2 Si3 O3a 2_555 10_555 102.9(9)
O3b Si3 O3b . 10_555 107.7(4)
O3b Si3 O3a . . 17.0(8)
O3b Si3 O3a . 10_555 101.3(10)
O3b Si3 O3a 10_555 . 101.3(10)
O3b Si3 O3a 10_555 10_555 17.0(8)
O3a Si3 O3a . 10_555 91.0(13)
loop_
_geom_bond_atom_site_label_1
_geom_bond_atom_site_label_2
_geom_bond_site_symmetry_2
_geom_bond_distance
La1 O1 . 2.5425(14)
La1 O1 2_665 2.543(2)
La1 O1 3_565 2.5425(11)
La1 O2 4_664 2.4847(10)
La1 O2 5_564 2.4847(17)
La1 O2 6_554 2.4847(16)
La1 O3a . 3.25(2)
La1 O3a 2_665 3.25(3)
La1 O3a 3_565 3.25(4)
La1 O3b . 2.776(7)
La1 O3b 2_665 2.776(10)
La1 O3b 3_565 2.776(11)
La2 O1 2_665 2.525(2)
La2 O2 . 2.774(2)
La2 O3a . 2.50(3)
La2 O3a 10_555 2.50(3)
La2 O3a 5_555 2.497(16)
La2 O3a 8_555 2.497(16)
La2 O3a 3_555 3.03(3)
La2 O3a 12_555 3.03(3)
La2 O3b . 2.633(9)
La2 O3b 10_555 2.633(9)
La2 O3b 5_555 2.482(5)
La2 O3b 8_555 2.482(5)
La2 O4 . 2.2664(2)
Si3 O1 . 1.6201(18)
Si3 O2 2_555 1.6180(19)
Si3 O3a . 1.62(3)
Si3 O3a 10_555 1.62(3)
Si3 O3b . 1.637(7)
Si3 O3b 10_555 1.637(7)
loop_
_refln_index_h
_refln_index_k
_refln_index_l
_refln_F_squared_calc
_refln_F_squared_meas
_refln_F_squared_sigma
_refln_observed_status
0 1 0 214.21 229.48 5.64 o
-1 2 0 3164.90 3298.32 33.81 o
0 2 0 21545.60 21144.20 167.71 o
-2 3 0 19135.10 17956.00 140.21 o
-1 3 0 37073.40 35709.70 288.01 o
0 3 0 52307.60 53832.50 407.56 o
-3 4 0 10001.40 10822.00 86.34 o
-2 4 0 2509.90 2498.74 26.32 o
-1 4 0 8237.39 8503.87 69.47 o
0 4 0 16846.80 16721.20 123.72 o
-4 5 0 79913.40 80460.60 515.23 o
-3 5 0 12543.10 12529.20 99.47 o
-2 5 0 11510.30 11473.00 82.59 o
-1 5 0 46736.40 46499.80 350.63 o
0 5 0 7861.63 7765.35 63.88 o
-5 6 0 680.12 696.02 18.81 o
-4 6 0 17495.80 17592.80 135.08 o
-3 6 0 924.42 976.27 20.69 o
-2 6 0 14113.20 13872.30 103.24 o
-1 6 0 9633.20 9571.71 84.54 o
0 6 0 5363.25 5152.97 50.76 o
-6 7 0 18804.90 18559.40 137.02 o
-5 7 0 2282.91 2249.41 28.21 o
-4 7 0 3474.00 3636.80 39.49 o
-3 7 0 5313.87 5282.78 48.88 o
-2 7 0 12204.40 11844.80 97.67 o
-1 7 0 22974.10 22982.70 181.97 o
0 7 0 5683.50 5706.12 58.28 o
-7 8 0 25456.20 25442.10 185.75 o
-6 8 0 12171.70 12219.60 97.70 o
-5 8 0 272.74 282.19 15.05 o
-4 8 0 49353.20 49235.30 336.69 o
-3 8 0 3272.30 3129.36 37.61 o
-2 8 0 5898.51 5777.55 62.04 o
-1 8 0 2610.86 2550.39 37.62 o
0 8 0 8212.45 8062.46 80.83 o
-8 9 0 4642.88 4633.61 63.94 o
-7 9 0 3520.22 3563.91 50.78 o
-6 9 0 515.04 507.93 20.69 o
-5 9 0 159.99 174.96 15.05 o
-4 9 0 10149.00 9874.31 97.73 o
-3 9 0 10643.60 10460.30 103.36 o
-2 9 0 12057.00 12052.80 103.35 o
-1 9 0 87.15 105.35 15.05 o
0 9 0 29764.90 29549.40 253.31 o
-9 10 0 16.08 18.81 16.93 <
-8 10 0 6956.49 7052.63 82.73 o
-7 10 0 7293.86 7185.78 82.72 o
-6 10 0 7498.05 7518.33 78.96 o
-5 10 0 15012.00 14708.70 148.42 o
-4 10 0 204.83 227.64 18.81 o
-3 10 0 11813.10 11886.90 116.52 o
-2 10 0 1982.84 1965.66 33.86 o
-1 10 0 2528.07 2520.46 45.14 o
0 10 0 1444.34 1455.98 39.50 o
-10 11 0 3814.41 3718.30 69.59 o
-9 11 0 8139.89 8118.35 116.57 o
-8 11 0 3019.78 2992.47 50.78 o
-7 11 0 3869.03 3846.10 58.30 o
-6 11 0 8611.60 8330.19 99.64 o
-5 11 0 6636.82 6896.91 86.49 o
-4 11 0 1679.63 1679.80 41.38 o
-3 11 0 2377.95 2354.97 48.91 o
-2 11 0 3183.21 3240.72 54.54 o
-1 11 0 2.44 -11.29 24.46 <
0 11 0 4139.56 4152.69 80.87 o
-11 12 0 536.15 457.15 37.63 o
-10 12 0 7615.80 7310.46 125.98 o
-9 12 0 2108.46 2189.52 60.19 o
-8 12 0 288.53 253.97 30.10 o
-7 12 0 0.77 -22.58 20.69 <
-6 12 0 1411.61 1463.52 43.27 o
-5 12 0 7018.54 6974.06 112.82 o
-4 12 0 848.13 893.58 45.15 o
-3 12 0 20218.90 20576.40 276.13 o
-2 12 0 1394.66 1399.57 58.32 o
-1 12 0 3110.87 3278.41 94.05 o
0 12 0 9209.55 9266.89 154.17 o
-12 13 0 3950.90 3646.87 92.16 o
-11 13 0 2008.58 2010.85 63.96 o
-10 13 0 2091.93 2153.80 69.60 o
-9 13 0 627.92 681.01 47.03 o
-8 13 0 23198.50 23425.50 287.35 o
-7 13 0 888.80 871.00 54.56 o
-6 13 0 5458.99 5542.04 129.76 o
-5 13 0 8769.84 8924.89 212.45 o
-4 13 0 6527.31 6229.86 255.74 o
-3 13 0 70.71 35.75 39.51 <
-2 13 0 1189.08 1173.85 65.84 o
-1 13 0 1590.05 1585.78 75.24 o
0 13 0 1152.51 1187.02 71.48 o
-13 14 0 11074.00 10623.00 225.58 o
-12 14 0 150.78 139.22 33.86 o
-11 14 0 3675.35 3688.32 84.64 o
-10 14 0 1742.39 1802.09 69.60 o
-9 14 0 56.81 94.07 33.86 <
-8 14 0 20.60 -1.88 31.98 <
-7 14 0 371.10 289.72 60.20 o
-6 14 0 6067.96 6224.48 178.65 o
-5 14 0 394.16 410.12 101.59 o
-4 14 0 4884.78 4729.89 236.96 o
-3 14 0 2060.51 1911.15 95.93 o
-2 14 0 4609.76 4528.75 114.72 o
-1 14 0 1361.90 1297.99 73.36 o
0 14 0 605.66 643.39 60.20 o
-14 15 0 833.45 835.26 67.72 o
-13 15 0 1244.36 1194.54 73.37 o
-12 15 0 344.94 363.09 41.39 o
-11 15 0 2904.46 2817.65 77.12 o
-10 15 0 2439.66 2499.86 71.48 o
-9 15 0 1551.97 1538.76 73.36 o
-8 15 0 3329.54 3193.74 131.66 o
-7 15 0 1177.67 1271.67 144.85 o
-6 15 0 849.45 1006.45 133.57 o
-5 15 0 2550.65 2206.40 186.22 o
-4 15 0 1516.42 1587.67 165.54 o
-3 15 0 1066.68 1076.04 142.97 o
-2 15 0 766.13 718.63 60.20 o
-1 15 0 1925.71 1890.48 88.41 o
0 15 0 239.61 171.20 48.91 o
-15 16 0 79.50 18.81 45.15 <
-14 16 0 125.35 122.29 48.91 <
-13 16 0 1574.05 1610.24 84.65 o
-12 16 0 47.64 5.64 37.63 <
-11 16 0 2969.96 3028.30 80.88 o
-10 16 0 2110.09 2069.15 69.60 o
-9 16 0 1954.06 1805.83 116.63 o
-8 16 0 3659.32 3707.13 218.18 o
-7 16 0 162.15 380.02 105.35 o
-6 16 0 1228.93 1252.86 154.26 o
-5 16 0 257.78 301.01 107.23 <
-4 16 0 28.24 -50.80 86.54 <
-3 16 0 385.58 355.56 114.76 o
-2 16 0 1801.64 1709.91 116.63 o
-1 16 0 2326.57 2172.57 92.17 o
0 16 0 281.64 299.13 54.56 o
-15 17 0 497.72 618.94 63.96 o
-14 17 0 2436.81 2371.93 97.81 o
-13 17 0 3822.89 4105.79 118.49 o
-12 17 0 1367.09 1412.74 69.60 o
-11 17 0 117.03 161.79 47.03 o
-10 17 0 277.46 242.69 69.61 o
-9 17 0 86.01 75.25 88.42 <
-8 17 0 1633.54 1997.74 188.11 o
-7 17 0 5526.50 5489.39 278.33 o
-6 17 0 1793.50 1790.79 182.46 o
-5 17 0 1207.72 1153.16 161.78 o
-4 17 0 9128.99 8887.06 372.25 o
-3 17 0 671.38 814.58 95.94 o
-2 17 0 693.04 649.03 88.42 o
-1 17 0 788.33 728.03 148.62 o
-14 18 0 299.82 449.63 124.17 o
-13 18 0 303.69 425.17 77.13 o
-12 18 0 6104.24 6120.96 193.69 o
-11 18 0 1369.66 1151.26 101.58 o
-10 18 0 1804.98 2009.00 191.87 o
-9 18 0 4142.41 4079.36 240.74 o
-8 18 0 248.56 58.32 101.59 <
-7 18 0 387.93 274.67 116.64 <
-6 18 0 172.52 54.56 101.59 <
-5 18 0 287.48 304.77 122.28 <
-4 18 0 299.78 438.34 133.57 o
-11 19 0 56.54 -67.73 92.18 <
-10 19 0 857.35 696.05 135.45 o
-9 19 0 808.69 716.74 139.21 o
-8 19 0 522.61 665.97 139.21 o
-7 19 0 1352.59 1506.80 182.47 o
0 1 1 47.92 48.91 5.64 o
-1 2 1 9569.24 9057.82 56.21 o
0 2 1 129.44 41.39 5.64 o
-2 3 1 33562.80 33220.60 180.64 o
-1 3 1 58021.40 58576.20 393.64 o
0 3 1 21.61 26.34 5.64 o
-3 4 1 3.52 11.29 5.64 <
-2 4 1 7522.88 7560.91 41.32 o
-1 4 1 3495.01 3722.11 26.32 o
0 4 1 73.40 33.86 5.64 o
-4 5 1 207.09 218.23 7.53 o
-3 5 1 13364.40 13504.30 73.19 o
-2 5 1 22073.10 22310.30 114.29 o
-1 5 1 2034.40 2025.47 18.81 o
0 5 1 219.96 233.28 9.41 o
-5 6 1 4084.69 4087.61 30.08 o
-4 6 1 620.36 650.88 11.29 o
-3 6 1 30387.10 30100.80 151.66 o
-2 6 1 4019.07 4079.99 30.08 o
-1 6 1 10508.70 10378.60 63.87 o
0 6 1 1852.68 1886.51 20.69 o
-6 7 1 9055.96 8672.82 54.50 o
-5 7 1 14323.30 14097.30 76.99 o
-4 7 1 3.09 0.00 5.64 <
-3 7 1 12760.50 12779.10 73.25 o
-2 7 1 6547.69 6430.66 39.47 o
-1 7 1 18789.00 18731.00 103.24 o
0 7 1 2448.72 2386.75 26.33 o
-7 8 1 1385.00 1391.99 20.69 o
-6 8 1 11919.80 11620.90 69.52 o
-5 8 1 3445.99 3563.74 30.09 o
-4 8 1 1086.38 1002.63 16.93 o
-3 8 1 707.77 728.02 16.93 o
-2 8 1 3390.35 3332.49 31.97 o
-1 8 1 4276.75 4270.60 37.61 o
0 8 1 255.85 265.26 13.17 o
-8 9 1 5.65 15.05 9.41 <
-7 9 1 273.75 261.50 13.17 o
-6 9 1 2268.60 2285.31 26.33 o
-5 9 1 1835.60 1811.39 24.45 o
-4 9 1 474.62 483.48 13.17 o
-3 9 1 3937.62 3832.66 37.61 o
-2 9 1 4972.07 4970.00 43.25 o
-1 9 1 594.10 618.92 18.81 o
0 9 1 528.54 532.39 16.93 o
-9 10 1 165.40 190.01 15.05 o
-8 10 1 1965.64 1969.42 30.10 o
-7 10 1 10443.40 10339.70 73.30 o
-6 10 1 8692.90 8677.43 62.04 o
-5 10 1 1232.82 1205.80 22.57 o
-4 10 1 36.25 45.15 9.41 o
-3 10 1 8933.08 8728.13 67.67 o
-2 10 1 10536.10 10507.10 73.31 o
-1 10 1 276.99 280.31 16.93 o
0 10 1 2220.06 2213.94 33.86 o
-10 11 1 1801.57 1832.17 37.62 o
-9 11 1 8892.96 8817.25 80.84 o
-8 11 1 528.34 547.45 20.69 o
-7 11 1 4556.35 4489.06 47.02 o
-6 11 1 2478.49 2488.49 37.62 o
-5 11 1 10173.70 10114.90 77.07 o
-4 11 1 1263.62 1282.94 26.34 o
-3 11 1 1392.38 1346.88 26.34 o
-2 11 1 7.29 15.05 11.29 <
-1 11 1 13206.10 12981.10 110.89 o
0 11 1 1493.39 1497.37 41.38 o
-11 12 1 233.78 227.64 26.34 o
-10 12 1 5703.89 5660.41 73.34 o
-9 12 1 4358.27 4430.96 56.42 o
-8 12 1 854.82 867.24 28.22 o
-7 12 1 322.23 351.80 20.69 o
-6 12 1 3881.32 3861.21 52.66 o
-5 12 1 2001.61 2010.83 48.91 o
-4 12 1 35.41 33.86 22.58 <
-3 12 1 265.29 272.79 22.58 o
-2 12 1 827.19 848.43 31.98 o
-1 12 1 2626.34 2667.22 54.55 o
0 12 1 94.09 118.52 24.46 o
-12 13 1 10.65 30.10 22.58 <
-11 13 1 35.17 22.58 22.58 <
-10 13 1 8.44 1.88 20.69 <
-9 13 1 71.67 71.49 20.69 o
-8 13 1 3.68 20.69 18.81 <
-7 13 1 61.61 84.66 22.58 o
-6 13 1 185.38 161.79 30.10 o
-5 13 1 34.18 47.03 37.63 <
-4 13 1 83.40 163.68 41.39 o
-3 13 1 62.76 101.59 30.10 o
-2 13 1 862.07 833.38 41.39 o
-1 13 1 248.32 252.09 30.10 o
0 13 1 4.65 16.93 24.46 <
-13 14 1 78.98 56.44 26.34 <
-12 14 1 65.03 92.18 26.34 o
-11 14 1 2537.69 2437.76 54.55 o
-10 14 1 2478.49 2462.23 50.79 o
-9 14 1 572.85 602.00 31.98 o
-8 14 1 31.14 22.58 22.58 <
-7 14 1 4386.11 4367.07 122.25 o
-6 14 1 2520.21 2370.05 92.17 o
-5 14 1 184.85 161.79 45.15 o
-4 14 1 548.93 453.38 71.49 o
-3 14 1 1809.66 1788.92 63.96 o
-2 14 1 5581.15 5574.04 92.15 o
-1 14 1 61.72 54.56 28.22 <
0 14 1 557.34 615.17 43.27 o
-14 15 1 408.51 466.56 41.39 o
-13 15 1 570.35 571.90 39.51 o
-12 15 1 488.81 492.89 35.74 o
-11 15 1 4091.46 4100.10 69.59 o
-10 15 1 39.58 31.98 22.58 <
-9 15 1 3156.76 3233.28 63.95 o
-8 15 1 52.54 -5.64 41.39 <
-7 15 1 3227.16 3479.66 114.74 o
-6 15 1 123.97 197.54 62.08 o
-5 15 1 2684.11 2904.22 139.19 o
-4 15 1 1203.96 1200.19 107.23 o
-3 15 1 1586.94 1469.15 116.63 o
-2 15 1 307.90 327.35 33.86 o
-1 15 1 1662.53 1636.56 58.31 o
0 15 1 2178.15 2176.36 65.84 o
-15 16 1 69.83 65.85 33.86 <
-14 16 1 2377.59 2281.66 67.72 o
-13 16 1 1371.52 1395.81 50.79 o
-12 16 1 183.37 109.12 28.22 o
-11 16 1 1.85 -24.46 24.46 <
-10 16 1 2998.46 3060.27 62.07 o
-9 16 1 2827.85 2701.04 105.33 o
-8 16 1 41.01 103.47 47.03 <
-7 16 1 172.78 142.98 63.96 <
-6 16 1 1929.33 2035.32 131.68 o
-5 16 1 2701.63 2823.33 141.07 o
-4 16 1 283.96 248.33 77.13 o
-3 16 1 13.42 92.19 67.73 <
-2 16 1 64.73 77.13 43.27 <
-1 16 1 2108.02 2234.68 65.84 o
0 16 1 540.97 481.60 41.39 o
-16 17 1 66.93 161.79 80.90 <
-15 17 1 201.10 178.72 37.63 o
-14 17 1 901.91 887.93 50.79 o
-13 17 1 16.12 31.98 31.98 <
-12 17 1 1.64 -5.64 28.22 <
-11 17 1 137.45 144.86 37.63 o
-10 17 1 3.20 -7.53 48.91 <
-9 17 1 78.89 80.90 48.91 <
-8 17 1 21.12 -31.98 60.20 <
-7 17 1 12.83 50.80 67.73 <
-6 17 1 1.69 11.29 65.85 <
-5 17 1 95.66 133.57 73.37 <
-4 17 1 0.32 39.51 69.61 <
-3 17 1 116.20 176.84 48.91 o
-2 17 1 445.26 447.74 58.32 o
-1 17 1 76.89 173.08 80.90 <
-14 18 1 630.74 654.67 97.82 o
-13 18 1 18.74 56.44 52.68 <
-12 18 1 20.20 31.98 39.51 <
-11 18 1 997.26 997.03 56.44 o
-10 18 1 1369.69 1305.51 112.87 o
-9 18 1 29.63 -18.81 63.97 <
-8 18 1 67.40 114.76 73.37 <
-7 18 1 846.71 965.06 107.23 o
-6 18 1 1776.00 1640.31 131.68 o
-5 18 1 42.42 -67.73 71.49 <
-4 18 1 122.71 5.64 75.25 <
-11 19 1 1229.54 1083.55 152.37 o
-10 19 1 294.20 161.79 79.01 <
-9 19 1 1142.42 1365.73 122.28 o
-8 19 1 417.38 376.26 90.30 o
0 0 2 49153.00 48498.00 734.79 o
0 1 2 26763.90 26103.00 184.53 o
-1 2 2 47266.70 48773.80 317.12 o
0 2 2 2693.71 2802.95 30.08 o
-2 3 2 1602.36 1818.54 16.93 o
-1 3 2 8.85 -11.29 3.76 <
0 3 2 11084.50 11781.60 60.05 o
-3 4 2 23687.30 23586.40 116.10 o
-2 4 2 57900.30 59021.30 275.13 o
-1 4 2 8245.48 8131.08 43.20 o
0 4 2 65257.80 64555.00 302.99 o
-4 5 2 1270.50 1267.76 15.05 o
-3 5 2 1531.46 1527.25 15.05 o
-2 5 2 2122.76 2072.49 18.81 o
-1 5 2 2730.58 2869.65 20.69 o
0 5 2 50261.20 50299.60 250.19 o
-5 6 2 7325.40 7239.72 46.99 o
-4 6 2 22.17 50.80 7.53 o
-3 6 2 34132.80 34153.30 168.48 o
-2 6 2 1557.03 1561.16 18.81 o
-1 6 2 87.41 90.30 7.53 o
0 6 2 16073.10 16225.50 90.12 o
-6 7 2 1736.47 1687.22 20.69 o
-5 7 2 41914.40 41693.00 190.92 o
-4 7 2 3072.23 3001.46 26.33 o
-3 7 2 1592.87 1549.91 18.81 o
-2 7 2 16146.40 16262.30 80.74 o
-1 7 2 1105.81 1149.35 16.93 o
0 7 2 1346.18 1339.31 20.69 o
-7 8 2 552.83 571.89 16.93 o
-6 8 2 539.47 581.30 15.05 o
-5 8 2 6753.46 6758.45 45.12 o
-4 8 2 1078.33 1077.88 16.93 o
-3 8 2 24196.60 23565.60 133.22 o
-2 8 2 1355.76 1378.82 22.57 o
-1 8 2 19082.50 18630.70 116.42 o
0 8 2 25682.30 25394.00 153.89 o
-8 9 2 24994.50 25008.90 155.80 o
-7 9 2 1119.99 1119.28 22.57 o
-6 9 2 20300.40 20036.60 116.42 o
-5 9 2 12143.60 12043.20 77.04 o
-4 9 2 28007.80 27448.70 150.10 o
-3 9 2 5691.35 5409.65 50.77 o
-2 9 2 215.87 220.11 13.17 o
-1 9 2 2701.89 2749.85 35.74 o
0 9 2 51.76 50.80 13.17 o
-9 10 2 7642.45 7689.86 67.69 o
-8 10 2 6307.20 6312.29 56.41 o
-7 10 2 176.43 188.13 13.17 o
-6 10 2 18.75 30.10 11.29 <
-5 10 2 3273.39 3317.71 37.62 o
-4 10 2 2659.27 2653.94 31.98 o
-3 10 2 238.07 246.45 15.05 o
-2 10 2 11997.10 11874.30 88.33 o
-1 10 2 558.09 571.90 20.69 o
0 10 2 1493.00 1459.74 33.86 o
-10 11 2 5380.07 5348.32 65.82 o
-9 11 2 384.54 396.95 20.69 o
-8 11 2 7.20 -9.41 13.17 <
-7 11 2 7231.20 7291.55 62.05 o
-6 11 2 132.35 127.93 15.05 o
-5 11 2 46.38 62.08 15.05 o
-4 11 2 9568.52 9482.11 82.71 o
-3 11 2 525.72 547.45 22.58 o
-2 11 2 182.22 186.25 16.93 o
-1 11 2 15703.40 15949.70 140.93 o
0 11 2 111.16 122.29 22.58 o
-11 12 2 915.97 1000.80 41.39 o
-10 12 2 446.57 438.34 30.10 o
-9 12 2 6690.80 6500.50 71.45 o
-8 12 2 7732.80 7895.08 75.21 o
-7 12 2 5044.70 5126.54 56.42 o
-6 12 2 10302.10 10156.80 99.63 o
-5 12 2 56.23 26.34 22.58 <
-4 12 2 8611.50 8817.68 94.01 o
-3 12 2 8.84 1.88 18.81 <
-2 12 2 786.21 786.35 31.98 o
-1 12 2 59.60 69.61 24.46 <
0 12 2 542.71 547.45 33.86 o
-12 13 2 13286.50 13015.80 146.60 o
-11 13 2 3482.88 3487.12 67.71 o
-10 13 2 124.86 141.10 26.34 o
-9 13 2 6982.35 6987.47 88.38 o
-8 13 2 1194.79 1158.80 37.62 o
-7 13 2 6069.85 6053.31 95.91 o
-6 13 2 259.67 280.31 47.03 o
-5 13 2 511.71 483.48 54.56 o
-4 13 2 16938.40 17294.40 283.73 o
-3 13 2 4237.83 4305.05 71.47 o
-2 13 2 4874.68 4754.34 71.47 o
-1 13 2 139.46 126.05 24.46 o
0 13 2 7326.32 7252.49 95.90 o
-13 14 2 80.59 94.07 26.34 o
-12 14 2 1722.27 1813.38 54.55 o
-11 14 2 140.00 152.39 28.22 o
-10 14 2 5303.28 5320.27 77.11 o
-9 14 2 3907.69 4079.47 65.83 o
-8 14 2 2342.04 2255.34 60.19 o
-7 14 2 8731.51 8479.47 178.61 o
-6 14 2 296.69 255.86 48.91 o
-5 14 2 1144.04 1141.88 75.25 o
-4 14 2 1189.73 1194.55 77.13 o
-3 14 2 79.73 105.35 31.98 o
-2 14 2 563.58 617.05 37.63 o
-1 14 2 3303.42 3366.79 69.59 o
0 14 2 428.43 459.03 37.63 o
-14 15 2 62.01 75.25 30.10 <
-13 15 2 11.38 9.41 26.34 <
-12 15 2 4971.00 4948.01 84.63 o
-11 15 2 61.19 31.98 26.34 <
-10 15 2 0.07 -3.76 22.58 <
-9 15 2 3354.00 3379.94 69.59 o
-8 15 2 49.24 94.07 45.15 <
-7 15 2 476.86 393.18 56.44 o
-6 15 2 5229.68 5450.06 144.81 o
-5 15 2 68.13 5.64 45.15 <
-4 15 2 199.30 127.93 63.96 <
-3 15 2 3713.96 4090.80 167.39 o
-2 15 2 90.11 142.98 31.98 o
-1 15 2 12.55 56.44 31.98 <
0 15 2 3718.08 3628.10 78.99 o
-15 16 2 720.51 737.44 47.03 o
-14 16 2 4486.41 4265.45 80.87 o
-13 16 2 13.26 -7.53 26.34 <
-12 16 2 2273.83 2373.85 62.07 o
-11 16 2 793.04 788.23 45.15 o
-10 16 2 1.55 -5.64 24.46 <
-9 16 2 33.67 56.44 47.03 <
-8 16 2 786.15 831.50 73.37 o
-7 16 2 3416.75 3543.56 122.26 o
-6 16 2 9.08 60.20 62.08 <
-5 16 2 4699.78 4630.26 180.55 o
-4 16 2 1518.69 1807.76 131.68 o
-3 16 2 3547.62 3330.98 159.87 o
-2 16 2 1047.55 1055.35 69.60 o
-1 16 2 133.53 135.46 48.91 <
0 16 2 354.16 355.56 39.51 o
-15 17 2 242.26 359.33 86.54 o
-14 17 2 104.23 28.22 31.98 <
-13 17 2 263.29 238.93 33.86 o
-12 17 2 5263.45 5197.99 94.03 o
-11 17 2 978.74 887.93 65.84 o
-10 17 2 4431.01 4417.82 165.50 o
-9 17 2 787.96 857.84 77.13 o
-8 17 2 6850.50 7057.10 176.76 o
-7 17 2 50.55 -18.81 63.97 <
-6 17 2 0.49 -41.39 62.08 <
-5 17 2 47.36 31.98 67.73 <
-4 17 2 256.32 299.13 80.90 o
-3 17 2 3855.60 3981.64 112.85 o
-2 17 2 90.11 54.56 47.03 <
-14 18 2 307.45 84.66 107.23 <
-13 18 2 2160.87 2232.78 116.62 o
-12 18 2 40.34 97.83 41.39 <
-11 18 2 1.28 24.46 45.15 <
-10 18 2 24.97 -5.64 52.68 <
-9 18 2 55.32 -20.69 65.85 <
-8 18 2 2341.16 2116.13 139.20 o
-7 18 2 282.75 287.84 84.66 o
-6 18 2 2968.80 3210.73 161.76 o
-5 18 2 124.98 235.16 84.66 <
-4 18 2 2303.59 2347.50 150.48 o
-10 19 2 51.58 43.27 101.59 <
-9 19 2 10.52 48.91 94.07 <
0 1 3 320.56 355.55 9.41 o
-1 2 3 18325.70 18625.70 89.94 o
0 2 3 2819.63 2951.94 22.56 o
-2 3 3 26521.90 26754.30 129.15 o
-1 3 3 50052.20 51022.70 236.61 o
0 3 3 25.83 30.10 5.64 o
-3 4 3 3.55 11.29 5.64 <
-2 4 3 3718.64 3747.14 26.32 o
-1 4 3 23.04 28.22 5.64 o
0 4 3 5.88 -7.53 5.64 <
-4 5 3 1066.97 1068.44 16.93 o
-3 5 3 5952.07 5981.16 39.47 o
-2 5 3 19014.40 19100.10 106.93 o
-1 5 3 2580.22 2552.03 20.69 o
0 5 3 420.25 406.35 11.29 o
-5 6 3 1975.72 1982.45 20.69 o
-4 6 3 2141.89 2161.06 22.57 o
-3 6 3 17478.70 17402.20 86.34 o
-2 6 3 3852.11 3815.35 28.21 o
-1 6 3 9804.12 9789.94 56.37 o
0 6 3 870.37 869.09 18.81 o
-6 7 3 8341.81 8176.47 60.15 o
-5 7 3 12880.90 12661.90 78.90 o
-4 7 3 53.90 50.80 7.53 o
-3 7 3 13077.40 12873.50 69.51 o
-2 7 3 6224.12 6151.44 45.12 o
-1 7 3 13159.40 12940.30 88.30 o
0 7 3 730.29 754.36 18.81 o
-7 8 3 443.83 481.60 16.93 o
-6 8 3 8684.12 8603.46 67.67 o
-5 8 3 3249.44 3323.22 33.85 o
-4 8 3 54.73 50.80 9.41 o
-3 8 3 521.65 528.63 15.05 o
-2 8 3 5468.89 5368.30 48.89 o
-1 8 3 3077.04 3171.00 37.62 o
0 8 3 156.42 173.08 13.17 o
-8 9 3 85.14 86.54 13.17 o
-7 9 3 528.79 502.29 18.81 o
-6 9 3 891.75 921.78 22.57 o
-5 9 3 1337.37 1309.25 22.57 o
-4 9 3 389.03 408.23 15.05 o
-3 9 3 2192.57 2240.22 33.86 o
-2 9 3 4530.24 4556.63 48.90 o
-1 9 3 528.46 543.68 20.69 o
0 9 3 455.01 430.81 18.81 o
-9 10 3 531.52 556.85 22.58 o
-8 10 3 1577.38 1644.07 28.22 o
-7 10 3 8054.21 8035.42 65.80 o
-6 10 3 6535.57 6601.71 58.29 o
-5 10 3 849.13 827.73 24.46 o
-4 10 3 63.91 65.85 13.17 o
-3 10 3 8939.05 8860.11 82.72 o
-2 10 3 10432.90 10421.20 84.59 o
-1 10 3 523.90 534.28 22.58 o
0 10 3 1843.59 1802.06 39.50 o
-10 11 3 1964.29 2042.83 43.26 o
-9 11 3 7101.04 7192.20 73.33 o
-8 11 3 302.59 252.09 20.69 o
-7 11 3 4207.96 4286.14 50.78 o
-6 11 3 1031.34 1030.89 30.10 o
-5 11 3 9841.03 9709.50 84.59 o
-4 11 3 1375.22 1388.27 31.98 o
-3 11 3 2033.86 2074.78 37.62 o
-2 11 3 29.00 26.34 16.93 <
-1 11 3 12979.40 12775.00 127.81 o
0 11 3 975.44 993.27 37.62 o
-11 12 3 159.55 173.08 24.46 o
-10 12 3 4081.44 4156.51 65.83 o
-9 12 3 3267.52 3331.04 58.31 o
-8 12 3 566.05 532.40 28.22 o
-7 12 3 181.57 218.23 22.58 o
-6 12 3 3349.17 3374.26 62.07 o
-5 12 3 2338.28 2405.80 65.84 o
-4 12 3 37.90 31.98 28.22 <
-3 12 3 212.96 225.76 28.22 o
-2 12 3 695.92 665.96 31.98 o
-1 12 3 1964.96 2027.79 48.91 o
0 12 3 103.32 105.35 24.46 o
-12 13 3 23.18 -16.93 24.46 <
-11 13 3 40.60 48.91 24.46 <
-10 13 3 47.78 56.44 24.46 <
-9 13 3 1.93 -20.69 20.69 <
-8 13 3 1.18 11.29 20.69 <
-7 13 3 80.80 65.85 24.46 <
-6 13 3 66.99 54.56 31.98 <
-5 13 3 116.65 116.64 35.74 o
-4 13 3 25.19 16.93 30.10 <
-3 13 3 3.96 28.22 22.58 <
-2 13 3 1139.98 1171.98 39.50 o
-1 13 3 292.27 317.94 31.98 o
0 13 3 110.58 90.30 28.22 o
-13 14 3 88.79 33.86 28.22 <
-12 14 3 28.61 -13.17 24.46 <
-11 14 3 1980.36 1914.93 56.43 o
-10 14 3 1912.64 1881.08 54.55 o
-9 14 3 354.85 378.14 31.98 o
-8 14 3 4.23 9.41 26.34 <
-7 14 3 3359.72 3317.87 109.09 o
-6 14 3 2652.41 2573.17 97.81 o
-5 14 3 281.14 297.24 52.68 o
-4 14 3 827.59 936.85 60.20 o
-3 14 3 1583.17 1550.04 56.43 o
-2 14 3 5153.49 5220.65 78.99 o
-1 14 3 19.45 37.63 24.46 <
0 14 3 427.06 438.34 35.74 o
-14 15 3 382.25 380.02 35.74 o
-13 15 3 619.23 613.29 39.51 o
-12 15 3 595.85 588.83 39.51 o
-11 15 3 3838.32 3932.78 73.35 o
-10 15 3 10.15 -16.93 26.34 <
-9 15 3 2271.87 2285.45 56.43 o
-8 15 3 50.29 30.10 45.15 <
-7 15 3 2256.62 2373.86 99.69 o
-6 15 3 156.90 195.66 50.80 o
-5 15 3 2434.52 2614.60 107.22 o
-4 15 3 1249.27 1260.38 84.65 o
-3 15 3 1621.73 1544.39 118.51 o
-2 15 3 285.71 250.21 33.86 o
-1 15 3 1459.26 1450.35 52.67 o
0 15 3 1700.30 1681.70 56.43 o
-15 16 3 44.28 -5.64 30.10 <
-14 16 3 2254.17 2153.77 60.19 o
-13 16 3 990.84 959.41 47.03 o
-12 16 3 209.37 171.20 33.86 o
-11 16 3 21.05 52.68 30.10 <
-10 16 3 2569.93 2669.11 90.29 o
-9 16 3 2710.48 2661.56 109.10 o
-8 16 3 69.71 67.73 48.91 <
-7 16 3 270.40 355.57 60.20 o
-6 16 3 1929.99 2024.03 103.46 o
-5 16 3 2498.64 2400.15 144.84 o
-4 16 3 80.73 146.74 71.49 <
-3 16 3 41.68 -37.63 48.91 <
-2 16 3 125.43 101.59 47.03 <
-1 16 3 1585.47 1621.52 82.77 o
0 16 3 626.38 733.69 103.47 o
-15 17 3 133.66 165.56 62.08 <
-14 17 3 1037.54 1032.77 48.91 o
-13 17 3 8.65 15.05 30.10 <
-12 17 3 3.14 -9.41 30.10 <
-11 17 3 135.07 220.11 48.91 o
-10 17 3 3.40 13.17 63.97 <
-9 17 3 81.23 84.66 52.68 <
-8 17 3 53.43 50.80 52.68 <
-7 17 3 25.92 -28.22 48.91 <
-6 17 3 3.93 22.58 67.73 <
-5 17 3 89.93 62.08 69.61 <
-4 17 3 0.08 18.81 71.49 <
-3 17 3 56.24 41.39 47.03 <
-2 17 3 354.85 391.31 88.42 o
-13 18 3 1.90 -20.69 56.44 <
-12 18 3 10.82 -28.22 52.68 <
-11 18 3 1250.29 1309.29 77.13 o
-10 18 3 991.19 1006.44 101.58 o
-9 18 3 11.97 47.03 52.68 <
-8 18 3 14.69 37.63 69.61 <
-7 18 3 571.15 423.28 90.30 o
-6 18 3 1510.38 1670.44 133.56 o
-5 18 3 79.54 39.51 73.37 <
0 0 4 175505.00 180741.00 1650.87 o
0 1 4 42.91 33.86 5.64 o
-1 2 4 2584.16 2651.54 18.81 o
0 2 4 8513.29 8420.40 43.21 o
-2 3 4 17155.60 17217.50 88.19 o
-1 3 4 17498.80 17717.50 82.56 o
0 3 4 21470.10 21742.60 112.52 o
-3 4 4 557.12 541.78 11.29 o
-2 4 4 449.29 483.47 11.29 o
-1 4 4 2187.39 2238.11 20.69 o
0 4 4 10636.50 10434.20 62.00 o
-4 5 4 49457.90 49074.20 246.81 o
-3 5 4 6003.49 5902.89 39.48 o
-2 5 4 5112.61 5245.52 33.84 o
-1 5 4 24487.90 24268.80 131.29 o
0 5 4 7816.75 7800.36 54.51 o
-5 6 4 462.20 489.12 16.93 o
-4 6 4 10084.20 10085.50 63.89 o
-3 6 4 644.76 656.54 15.05 o
-2 6 4 14387.60 14445.70 84.52 o
-1 6 4 8984.36 8831.65 62.02 o
0 6 4 3746.75 3646.48 37.61 o
-6 7 4 14731.20 14561.00 99.57 o
-5 7 4 57.60 65.85 11.29 o
-4 7 4 2029.34 2023.89 26.33 o
-3 7 4 3477.34 3407.75 33.85 o
-2 7 4 4189.85 4199.23 39.49 o
-1 7 4 14339.10 14223.40 103.33 o
0 7 4 3004.34 3033.73 37.62 o
-7 8 4 16950.00 17058.50 123.98 o
-6 8 4 10684.80 10641.60 75.18 o
-5 8 4 149.43 156.15 13.17 o
-4 8 4 35963.20 35321.30 219.36 o
-3 8 4 2563.83 2471.48 33.86 o
-2 8 4 2973.04 2888.94 37.62 o
-1 8 4 1329.39 1365.69 28.22 o
0 8 4 5237.52 5235.28 56.41 o
-8 9 4 4503.67 4568.07 52.66 o
-7 9 4 2152.63 2121.76 35.74 o
-6 9 4 364.45 364.97 16.93 o
-5 9 4 345.89 368.73 18.81 o
-4 9 4 6014.24 5866.69 56.41 o
-3 9 4 6911.60 6862.78 62.05 o
-2 9 4 7966.55 7982.77 71.44 o
-1 9 4 404.90 432.69 20.69 o
0 9 4 19715.30 19469.50 144.64 o
-9 10 4 131.90 148.62 20.69 o
-8 10 4 3897.02 3911.98 54.54 o
-7 10 4 5766.14 5908.42 60.17 o
-6 10 4 4842.11 4893.31 50.78 o
-5 10 4 7947.00 7691.56 80.85 o
-4 10 4 400.61 400.71 18.81 o
-3 10 4 7420.49 7473.86 77.09 o
-2 10 4 949.27 974.46 28.22 o
-1 10 4 2081.08 2095.47 43.26 o
0 10 4 829.89 801.40 31.98 o
-10 11 4 2221.21 2229.02 48.91 o
-9 11 4 6341.19 6528.90 82.74 o
-8 11 4 3043.50 3037.65 54.55 o
-7 11 4 2357.77 2402.03 45.14 o
-6 11 4 6142.71 6141.53 77.10 o
-5 11 4 5314.56 5282.51 69.58 o
-4 11 4 1166.51 1213.35 35.74 o
-3 11 4 1595.41 1551.91 45.15 o
-2 11 4 2438.52 2497.96 50.79 o
-1 11 4 5.75 20.69 20.69 <
0 11 4 3499.95 3511.56 62.07 o
-11 12 4 498.48 506.06 31.98 o
-10 12 4 5650.60 5485.60 77.10 o
-9 12 4 1140.68 1173.85 41.39 o
-8 12 4 412.94 400.71 30.10 o
-7 12 4 33.35 9.41 18.81 <
-6 12 4 606.65 639.63 31.98 o
-5 12 4 4427.95 4367.03 90.27 o
-4 12 4 798.21 771.30 52.67 o
-3 12 4 12660.00 12458.00 146.61 o
-2 12 4 815.73 758.13 33.86 o
-1 12 4 2128.81 2104.89 50.79 o
0 12 4 5880.35 5880.45 82.74 o
-12 13 4 3576.21 3389.29 63.95 o
-11 13 4 1565.54 1602.72 48.91 o
-10 13 4 1610.81 1487.96 47.03 o
-9 13 4 633.36 688.54 35.74 o
-8 13 4 17934.60 17845.80 167.22 o
-7 13 4 462.39 496.66 33.86 o
-6 13 4 4290.13 4286.23 103.44 o
-5 13 4 6488.05 6685.01 118.47 o
-4 13 4 4648.55 4395.21 95.92 o
-3 13 4 76.79 131.69 28.22 o
-2 13 4 886.72 844.66 37.62 o
-1 13 4 1253.75 1282.95 45.15 o
0 13 4 1033.96 1066.64 45.15 o
-13 14 4 8148.43 8064.27 110.93 o
-12 14 4 39.33 3.76 26.34 <
-11 14 4 2939.85 2988.81 65.83 o
-10 14 4 763.35 763.78 43.27 o
-9 14 4 65.07 92.18 24.46 o
-8 14 4 20.63 -26.34 24.46 <
-7 14 4 107.62 152.39 39.51 o
-6 14 4 4248.85 4124.51 105.32 o
-5 14 4 340.40 412.00 48.91 o
-4 14 4 3282.21 3417.58 88.40 o
-3 14 4 1365.90 1329.97 63.96 o
-2 14 4 4022.25 4006.08 65.83 o
-1 14 4 726.16 767.54 39.51 o
0 14 4 396.73 361.21 33.86 o
-14 15 4 815.61 850.31 43.27 o
-13 15 4 1130.06 1055.34 47.03 o
-12 15 4 165.22 208.83 33.86 o
-11 15 4 2386.95 2405.81 65.84 o
-10 15 4 1856.91 1914.94 60.19 o
-9 15 4 887.47 927.44 45.15 o
-8 15 4 2586.47 2808.31 107.22 o
-7 15 4 658.34 709.23 67.72 o
-6 15 4 399.00 359.32 58.32 o
-5 15 4 2366.43 2409.58 105.34 o
-4 15 4 944.98 893.57 63.96 o
-3 15 4 609.00 756.26 56.44 o
-2 15 4 744.85 660.31 48.91 o
-1 15 4 1309.13 1247.20 47.03 o
0 15 4 132.47 133.57 30.10 o
-15 16 4 53.94 26.34 30.10 <
-14 16 4 31.61 28.22 31.98 <
-13 16 4 1236.07 1218.99 54.55 o
-12 16 4 56.38 47.03 31.98 <
-11 16 4 2367.02 2449.07 65.84 o
-10 16 4 1520.33 1570.74 79.01 o
-9 16 4 1803.04 1696.74 122.27 o
-8 16 4 2789.34 2665.31 110.98 o
-7 16 4 223.90 261.50 58.32 o
-6 16 4 1182.53 1250.98 88.42 o
-5 16 4 138.52 126.05 54.56 <
-4 16 4 1.37 35.75 65.85 <
-3 16 4 347.38 338.63 52.68 o
-2 16 4 1411.59 1487.98 88.41 o
-1 16 4 1760.13 1751.29 84.65 o
-14 17 4 1741.75 1945.05 109.10 o
-13 17 4 2683.06 2509.20 71.48 o
-12 17 4 1184.82 1207.71 60.20 o
-11 17 4 33.83 62.08 45.15 <
-10 17 4 92.48 39.51 52.68 <
-9 17 4 77.52 71.49 69.61 <
-8 17 4 1575.94 1578.26 97.82 o
-7 17 4 4050.67 4105.72 135.41 o
-6 17 4 1279.61 1264.14 92.18 o
-5 17 4 832.19 880.41 105.35 o
-4 17 4 6584.09 6536.31 308.39 o
-3 17 4 657.90 756.26 103.47 o
-11 18 4 1042.52 1076.04 107.23 o
-10 18 4 1398.69 1171.95 112.87 o
-9 18 4 3153.71 3238.89 154.23 o
-8 18 4 159.86 312.30 80.90 o
-7 18 4 294.76 195.65 80.90 <
-6 18 4 115.63 126.05 75.25 <
0 1 5 66.04 79.02 5.64 o
-1 2 5 3847.80 3913.04 24.44 o
0 2 5 17.47 18.81 5.64 o
-2 3 5 16208.40 16206.40 75.10 o
-1 3 5 25781.60 26020.20 112.51 o
0 3 5 34.15 30.10 7.53 o
-3 4 5 16.72 22.58 7.53 o
-2 4 5 4021.04 4042.94 28.21 o
-1 4 5 1897.90 1788.75 18.81 o
0 4 5 186.82 158.03 9.41 o
-4 5 5 38.60 50.80 9.41 o
-3 5 5 7893.00 7892.89 52.63 o
-2 5 5 11801.80 11820.20 71.40 o
-1 5 5 980.67 955.62 18.81 o
0 5 5 92.46 84.66 11.29 o
-5 6 5 2948.61 2947.20 37.62 o
-4 6 5 237.49 255.85 13.17 o
-3 6 5 17935.30 17725.50 116.43 o
-2 6 5 2436.69 2420.68 28.21 o
-1 6 5 6173.27 6080.54 50.77 o
0 6 5 1329.81 1299.84 28.22 o
-6 7 5 4480.40 4402.42 45.13 o
-5 7 5 8994.89 9041.68 69.55 o
-4 7 5 16.19 15.05 11.29 <
-3 7 5 6332.00 6326.93 54.53 o
-2 7 5 3591.45 3477.43 37.61 o
-1 7 5 11960.50 11924.20 95.84 o
0 7 5 1545.13 1598.92 30.10 o
-7 8 5 1123.12 1083.55 30.10 o
-6 8 5 7604.68 7535.48 65.80 o
-5 8 5 1773.01 1771.94 33.86 o
-4 8 5 731.18 699.81 20.69 o
-3 8 5 483.86 492.89 18.81 o
-2 8 5 1384.33 1395.78 28.22 o
-1 8 5 2646.87 2682.19 41.38 o
0 8 5 166.62 174.96 16.93 o
-8 9 5 7.57 13.17 15.05 <
-7 9 5 150.06 161.79 18.81 o
-6 9 5 1847.01 1866.00 33.86 o
-5 9 5 1231.70 1230.27 30.10 o
-4 9 5 263.93 263.38 16.93 o
-3 9 5 2595.62 2654.00 37.62 o
-2 9 5 3116.60 3103.43 45.14 o
-1 9 5 534.31 579.43 24.46 o
0 9 5 260.61 237.04 24.46 o
-9 10 5 31.08 45.15 20.69 <
-8 10 5 1222.70 1175.72 39.50 o
-7 10 5 6696.03 6818.21 88.38 o
-6 10 5 5895.55 6047.61 63.94 o
-5 10 5 801.18 807.04 31.98 o
-4 10 5 63.51 41.39 15.05 <
-3 10 5 5451.79 5464.87 75.22 o
-2 10 5 6361.11 6555.17 80.86 o
-1 10 5 158.95 195.66 24.46 o
0 10 5 1452.02 1566.98 45.15 o
-10 11 5 1177.49 1211.48 41.39 o
-9 11 5 6424.53 6436.78 84.62 o
-8 11 5 329.37 321.70 28.22 o
-7 11 5 2809.50 2847.74 56.43 o
-6 11 5 2167.22 2163.18 43.26 o
-5 11 5 6312.76 6271.29 88.38 o
-4 11 5 748.87 761.90 41.39 o
-3 11 5 738.09 752.49 37.62 o
-2 11 5 20.71 35.75 20.69 <
-1 11 5 8445.70 8417.57 99.65 o
0 11 5 1163.76 1220.88 43.27 o
-11 12 5 195.40 176.84 26.34 o
-10 12 5 4052.26 3927.08 67.71 o
-9 12 5 3144.00 3090.33 62.07 o
-8 12 5 605.59 556.85 33.86 o
-7 12 5 160.02 167.44 26.34 o
-6 12 5 2581.81 2625.85 54.55 o
-5 12 5 1242.30 1271.67 56.43 o
-4 12 5 11.98 -41.39 30.10 <
-3 12 5 174.68 201.30 28.22 o
-2 12 5 703.57 716.75 33.86 o
-1 12 5 1765.15 1834.07 50.79 o
0 12 5 45.23 79.02 24.46 o
-12 13 5 0.03 -31.98 22.58 <
-11 13 5 3.64 5.64 24.46 <
-10 13 5 0.34 15.05 24.46 <
-9 13 5 105.07 94.07 26.34 o
-8 13 5 11.40 -13.17 24.46 <
-7 13 5 30.74 18.81 24.46 <
-6 13 5 189.24 159.91 33.86 o
-5 13 5 13.96 -22.58 30.10 <
-4 13 5 80.04 60.20 33.86 <
-3 13 5 77.63 31.98 24.46 <
-2 13 5 552.59 538.04 33.86 o
-1 13 5 174.96 223.88 28.22 o
0 13 5 3.05 -3.76 24.46 <
-13 14 5 51.99 41.39 30.10 <
-12 14 5 52.20 88.42 28.22 o
-11 14 5 1985.83 1986.40 58.31 o
-10 14 5 1821.21 1732.48 54.55 o
-9 14 5 500.05 534.28 35.74 o
-8 14 5 28.59 73.37 28.22 <
-7 14 5 3198.67 3340.48 97.81 o
-6 14 5 1631.70 1730.62 79.01 o
-5 14 5 111.50 124.17 35.75 o
-4 14 5 316.10 246.45 41.39 o
-3 14 5 1268.46 1333.74 65.84 o
-2 14 5 4182.35 4194.10 80.87 o
-1 14 5 52.65 60.20 26.34 <
0 14 5 467.07 428.93 37.63 o
-14 15 5 349.90 338.63 35.74 o
-13 15 5 415.76 364.97 39.51 o
-12 15 5 274.57 267.14 35.74 o
-11 15 5 2724.85 2669.08 69.60 o
-10 15 5 44.55 63.97 30.10 <
-9 15 5 2487.64 2488.56 90.29 o
-8 15 5 17.35 71.49 47.03 <
-7 15 5 2609.20 2798.90 94.05 o
-6 15 5 88.86 109.12 43.27 <
-5 15 5 2080.95 2108.66 88.41 o
-4 15 5 795.52 697.93 54.56 o
-3 15 5 1089.67 1213.36 58.32 o
-2 15 5 180.76 148.62 35.74 o
-1 15 5 1312.10 1318.69 48.91 o
0 15 5 1696.30 1623.39 54.55 o
-15 16 5 49.67 69.61 56.44 <
-14 16 5 1760.33 1696.74 62.08 o
-13 16 5 1188.55 1183.25 52.67 o
-12 16 5 131.10 112.88 33.86 o
-11 16 5 1.37 -20.69 28.22 <
-10 16 5 2193.52 2229.02 92.17 o
-9 16 5 2008.90 2008.97 133.55 o
-8 16 5 24.55 26.34 63.97 <
-7 16 5 79.32 146.74 56.44 <
-6 16 5 1301.36 1207.70 88.41 o
-5 16 5 2022.59 1946.89 107.22 o
-4 16 5 315.89 188.13 60.20 o
-3 16 5 2.22 30.10 43.27 <
-2 16 5 45.55 45.15 45.15 <
-1 16 5 1721.32 1779.51 129.79 o
-13 17 5 9.41 71.49 67.73 <
-12 17 5 0.13 -31.98 43.27 <
-11 17 5 68.25 37.63 45.15 <
-10 17 5 1.71 -30.10 43.27 <
-9 17 5 75.88 169.32 71.49 <
-8 17 5 12.49 33.86 65.85 <
-7 17 5 9.94 -60.20 62.08 <
-6 17 5 3.78 -39.51 52.68 <
-5 17 5 91.13 105.35 56.44 <
-4 17 5 0.21 -75.25 69.61 <
0 0 6 30419.80 30553.20 329.96 o
0 1 6 9474.47 9607.07 48.86 o
-1 2 6 22060.00 21775.70 101.34 o
0 2 6 2.79 -1.88 7.53 <
-2 3 6 13.56 11.29 7.53 <
-1 3 6 1150.15 1149.35 15.05 o
0 3 6 1533.07 1523.64 18.81 o
-3 4 6 13342.70 13217.40 71.39 o
-2 4 6 19754.20 19370.70 103.27 o
-1 4 6 953.46 1017.70 18.81 o
0 4 6 25875.00 25712.40 144.49 o
-4 5 6 554.14 588.83 15.05 o
-3 5 6 124.01 135.45 11.29 o
-2 5 6 99.58 111.00 11.29 o
-1 5 6 936.63 897.32 18.81 o
0 5 6 18502.90 18495.80 122.08 o
-5 6 6 2401.12 2415.12 37.62 o
-4 6 6 208.47 197.54 13.17 o
-3 6 6 17927.00 17894.30 112.70 o
-2 6 6 169.52 169.32 11.29 o
-1 6 6 2.48 3.76 11.29 <
0 6 6 9468.04 9342.62 84.59 o
-6 7 6 807.72 763.77 26.34 o
-5 7 6 13548.00 13584.60 110.87 o
-4 7 6 703.77 743.08 20.69 o
-3 7 6 522.89 553.09 18.81 o
-2 7 6 5229.54 5081.11 48.89 o
-1 7 6 1421.68 1393.90 30.10 o
0 7 6 152.05 161.79 16.93 o
-7 8 6 159.68 150.51 16.93 o
-6 8 6 273.05 253.98 20.69 o
-5 8 6 2708.32 2710.41 45.14 o
-4 8 6 565.10 594.47 20.69 o
-3 8 6 10775.80 10904.10 90.23 o
-2 8 6 136.82 146.74 16.93 o
-1 8 6 8390.92 8167.13 80.84 o
0 8 6 14598.20 14673.00 133.43 o
-8 9 6 11484.60 11417.40 118.42 o
-7 9 6 236.76 227.64 22.58 o
-6 9 6 11278.60 11035.70 114.66 o
-5 9 6 4694.82 4865.24 65.82 o
-4 9 6 15942.10 16127.50 133.41 o
-3 9 6 2480.52 2449.03 41.38 o
-2 9 6 496.46 483.48 26.34 o
-1 9 6 2177.38 2204.56 48.91 o
0 9 6 185.91 205.06 24.46 o
-9 10 6 2804.14 2840.23 56.43 o
-8 10 6 2603.26 2486.65 56.43 o
-7 10 6 86.58 103.47 22.58 o
-6 10 6 92.91 77.13 20.69 o
-5 10 6 861.39 788.23 37.62 o
-4 10 6 1789.87 1835.94 37.62 o
-3 10 6 585.91 543.68 33.86 o
-2 10 6 5939.17 5919.85 78.98 o
-1 10 6 151.94 186.25 24.46 o
0 10 6 348.11 389.43 30.10 o
-10 11 6 2684.21 2576.93 54.55 o
-9 11 6 341.85 314.17 30.10 o
-8 11 6 60.86 67.73 24.46 <
-7 11 6 3423.68 3481.48 65.83 o
-6 11 6 283.59 259.62 26.34 o
-5 11 6 99.53 99.71 24.46 o
-4 11 6 5569.39 5495.03 97.79 o
-3 11 6 185.72 171.20 28.22 o
-2 11 6 38.70 75.25 22.58 o
-1 11 6 9232.28 9223.70 109.04 o
0 11 6 36.92 52.68 24.46 <
-11 12 6 638.55 686.66 37.62 o
-10 12 6 520.67 507.94 35.74 o
-9 12 6 3376.27 3383.70 67.71 o
-8 12 6 3618.90 3639.43 67.71 o
-7 12 6 2366.39 2405.82 56.43 o
-6 12 6 4850.19 4797.61 88.39 o
-5 12 6 231.47 267.14 43.27 o
-4 12 6 4751.91 4622.74 110.96 o
-3 12 6 196.38 229.52 30.10 o
-2 12 6 233.14 193.77 26.34 o
-1 12 6 0.66 -1.88 22.58 <
0 12 6 53.32 88.42 26.34 o
-12 13 6 7498.38 7491.15 105.30 o
-11 13 6 2028.22 1866.01 56.43 o
-10 13 6 24.29 -5.64 24.46 <
-9 13 6 3522.71 3598.08 69.59 o
-8 13 6 856.47 921.80 41.39 o
-7 13 6 4059.82 3966.58 80.87 o
-6 13 6 186.34 174.96 35.74 o
-5 13 6 299.32 336.75 41.39 o
-4 13 6 10472.40 10582.10 184.23 o
-3 13 6 2309.14 2347.51 71.48 o
-2 13 6 2978.95 3020.77 62.07 o
-1 13 6 42.03 41.39 26.34 <
0 13 6 3993.49 3848.09 71.47 o
-13 14 6 130.35 124.17 30.10 o
-12 14 6 733.21 643.38 41.39 o
-11 14 6 143.43 156.15 30.10 o
-10 14 6 2292.45 2336.23 60.19 o
-9 14 6 1852.04 1920.58 56.43 o
-8 14 6 1253.89 1299.88 62.08 o
-7 14 6 4349.06 4348.28 133.53 o
-6 14 6 449.31 470.32 54.56 o
-5 14 6 484.95 389.42 45.15 o
-4 14 6 614.01 709.23 52.67 o
-3 14 6 0.22 -56.44 33.86 <
-2 14 6 327.90 310.41 35.74 o
-1 14 6 1764.40 1899.90 54.55 o
0 14 6 118.85 90.30 30.10 o
-14 15 6 45.65 67.73 33.86 <
-13 15 6 4.45 16.93 31.98 <
-12 15 6 2778.12 2657.78 71.48 o
-11 15 6 55.51 82.78 30.10 <
-10 15 6 23.45 18.81 26.34 <
-9 15 6 1942.11 1945.02 75.24 o
-8 15 6 83.10 56.44 48.91 <
-7 15 6 81.48 63.97 50.80 <
-6 15 6 2635.54 2676.62 110.98 o
-5 15 6 49.46 103.47 45.15 <
-4 15 6 14.10 56.44 39.51 <
-3 15 6 1769.10 1946.93 65.84 o
-2 15 6 82.81 94.07 33.86 <
-1 15 6 18.26 30.10 37.63 <
0 15 6 2323.77 2245.92 114.74 o
-13 16 6 1.36 -16.93 63.97 <
-12 16 6 1314.26 1371.36 56.43 o
-11 16 6 452.74 460.91 54.56 o
-10 16 6 14.06 26.34 43.27 <
-9 16 6 12.46 -7.53 62.08 <
-8 16 6 347.11 278.43 77.13 o
-7 16 6 1939.01 2035.31 109.10 o
-6 16 6 20.52 35.75 52.68 <
-5 16 6 2763.56 2836.47 101.57 o
-4 16 6 716.74 744.97 65.84 o
-3 16 6 2290.38 2268.50 97.81 o
-11 17 6 465.20 398.83 84.66 o
-10 17 6 2335.58 2029.61 141.07 o
-9 17 6 498.50 500.42 90.30 o
-8 17 6 3982.92 3928.94 169.27 o
-7 17 6 0.37 22.58 67.73 <
-6 17 6 19.64 69.61 71.49 <
0 1 7 19.87 15.05 7.53 <
-1 2 7 3708.88 3768.87 30.09 o
0 2 7 137.68 126.05 9.41 o
-2 3 7 9060.53 9024.75 56.39 o
-1 3 7 16499.80 16656.40 90.17 o
0 3 7 9.87 1.88 9.41 <
-3 4 7 2.24 7.53 9.41 <
-2 4 7 2065.11 2040.87 24.45 o
-1 4 7 114.79 101.59 11.29 o
0 4 7 18.21 30.10 11.29 <
-4 5 7 192.37 195.66 13.17 o
-3 5 7 3860.95 3795.28 37.61 o
-2 5 7 6205.50 6216.39 47.01 o
-1 5 7 684.20 699.82 18.81 o
0 5 7 0.25 13.17 11.29 <
-5 6 7 1330.55 1343.13 31.98 o
-4 6 7 438.66 451.50 20.69 o
-3 6 7 9509.75 9495.18 71.43 o
-2 6 7 1915.18 1867.87 26.33 o
-1 6 7 4340.26 4316.15 47.02 o
0 6 7 373.05 398.83 22.58 o
-6 7 7 3489.71 3526.55 48.90 o
-5 7 7 5900.07 5919.70 69.58 o
-4 7 7 35.99 26.34 15.05 <
-3 7 7 4430.18 4372.57 45.14 o
-2 7 7 2648.18 2652.13 37.62 o
-1 7 7 6609.69 6759.93 63.93 o
0 7 7 784.50 797.64 30.10 o
-7 8 7 357.87 366.85 26.34 o
-6 8 7 3969.62 3985.35 67.71 o
-5 8 7 1746.88 1783.27 45.15 o
-4 8 7 181.09 178.72 16.93 o
-3 8 7 197.32 203.18 20.69 o
-2 8 7 1950.65 2014.61 39.50 o
-1 8 7 1881.25 1984.53 43.26 o
0 8 7 57.39 22.58 20.69 <
-8 9 7 9.05 18.81 22.58 <
-7 9 7 156.05 148.62 22.58 o
-6 9 7 755.43 728.04 35.74 o
-5 9 7 640.64 628.34 33.86 o
-4 9 7 272.53 267.14 20.69 o
-3 9 7 1606.55 1555.68 39.50 o
-2 9 7 2734.54 2780.05 54.55 o
-1 9 7 247.07 238.93 26.34 o
0 9 7 251.64 235.16 26.34 o
-9 10 7 300.01 301.01 30.10 o
-8 10 7 725.91 752.49 37.62 o
-7 10 7 5144.98 5158.58 75.23 o
-6 10 7 3538.08 3519.07 62.07 o
-5 10 7 455.01 487.25 35.74 o
-4 10 7 11.99 -1.88 18.81 <
-3 10 7 4210.57 4237.35 77.11 o
-2 10 7 4798.92 4795.74 71.47 o
-1 10 7 174.65 190.01 26.34 o
0 10 7 1202.52 1234.05 45.15 o
-10 11 7 899.29 931.20 43.27 o
-9 11 7 3736.23 3789.87 71.47 o
-8 11 7 126.58 124.17 26.34 o
-7 11 7 2098.45 2133.11 50.79 o
-6 11 7 734.39 671.60 33.86 o
-5 11 7 5270.60 5246.93 92.15 o
-4 11 7 773.47 741.20 56.44 o
-3 11 7 840.23 769.42 41.39 o
-2 11 7 16.90 28.22 22.58 <
-1 11 7 6567.17 6589.09 90.26 o
0 11 7 712.71 750.61 37.62 o
-11 12 7 65.80 63.97 28.22 <
-10 12 7 2707.46 2635.23 62.07 o
-9 12 7 1993.75 2044.72 56.43 o
-8 12 7 312.52 316.06 31.98 o
-7 12 7 186.84 257.74 30.10 o
-6 12 7 1783.28 1798.33 73.36 o
-5 12 7 971.84 950.01 75.25 o
-4 12 7 77.67 35.75 35.75 <
-3 12 7 105.49 75.25 26.34 <
-2 12 7 257.81 259.62 30.10 o
-1 12 7 1243.94 1303.65 47.03 o
0 12 7 58.83 35.75 28.22 <
-12 13 7 28.60 48.91 28.22 <
-11 13 7 19.72 65.85 28.22 <
-10 13 7 37.01 52.68 28.22 <
-9 13 7 3.78 13.17 26.34 <
-8 13 7 1.68 -50.80 24.46 <
-7 13 7 90.33 109.12 43.27 <
-6 13 7 103.25 24.46 45.15 <
-5 13 7 57.91 109.12 41.39 <
-4 13 7 9.10 43.27 39.51 <
-3 13 7 12.73 15.05 31.98 <
-2 13 7 674.03 703.58 37.62 o
-1 13 7 218.94 203.18 30.10 o
0 13 7 37.04 30.10 28.22 <
-13 14 7 51.41 1.88 30.10 <
-12 14 7 36.43 18.81 30.10 <
-11 14 7 1274.41 1311.17 50.79 o
-10 14 7 1375.50 1284.82 50.79 o
-9 14 7 170.16 165.55 30.10 o
-8 14 7 15.83 3.76 33.86 <
-7 14 7 2169.40 2185.76 107.22 o
-6 14 7 1657.96 1826.55 103.46 o
-5 14 7 71.56 131.69 45.15 <
-4 14 7 404.52 363.09 47.03 o
-3 14 7 1033.00 951.88 54.55 o
-2 14 7 2812.41 2708.56 77.12 o
-1 14 7 24.10 35.75 28.22 <
0 14 7 236.86 233.28 33.86 o
-13 15 7 450.10 485.37 67.73 o
-12 15 7 286.11 310.41 35.74 o
-11 15 7 2467.46 2407.67 63.95 o
-10 15 7 1.78 -33.86 30.10 <
-9 15 7 1657.38 1645.97 73.36 o
-8 15 7 27.67 -41.39 47.03 <
-7 15 7 1288.44 1282.95 90.30 o
-6 15 7 56.86 54.56 52.68 <
-5 15 7 1373.48 1412.74 94.06 o
-4 15 7 800.36 761.90 58.32 o
-3 15 7 763.83 767.54 48.91 o
-2 15 7 197.14 135.45 45.15 <
-12 16 7 65.67 122.29 71.49 <
-11 16 7 10.80 -16.93 63.97 <
-10 16 7 1478.79 1501.14 71.48 o
-9 16 7 1759.21 1711.79 80.89 o
-8 16 7 46.33 75.25 54.56 <
-7 16 7 129.02 105.35 56.44 <
-6 16 7 1158.67 1177.61 90.30 o
-5 16 7 1450.82 1452.23 97.82 o
-4 16 7 84.56 84.66 54.56 <
0 0 8 44522.40 44851.50 552.89 o
0 1 8 136.12 150.51 11.29 o
-1 2 8 348.18 357.44 15.05 o
0 2 8 2355.72 2274.09 28.21 o
-2 3 8 6080.65 6015.38 48.89 o
-1 3 8 5651.15 5654.55 45.13 o
0 3 8 5790.62 5761.69 45.13 o
-3 4 8 56.36 47.03 11.29 o
-2 4 8 1.44 5.64 11.29 <
-1 4 8 310.25 285.96 15.05 o
0 4 8 5327.42 5468.61 48.89 o
-4 5 8 17146.50 17069.10 108.97 o
-3 5 8 1414.73 1339.36 26.34 o
-2 5 8 1515.50 1544.39 26.34 o
-1 5 8 6237.84 6387.79 50.77 o
0 5 8 4018.72 4128.25 45.14 o
-5 6 8 185.79 214.47 22.58 o
-4 6 8 3474.57 3419.36 45.14 o
-3 6 8 45.85 52.68 15.05 o
-2 6 8 6213.26 6259.99 56.41 o
-1 6 8 3848.84 3671.29 48.90 o
0 6 8 858.90 882.29 33.86 o
-6 7 8 5487.36 5487.51 80.86 o
-5 7 8 251.22 272.79 26.34 o
-4 7 8 634.34 586.95 26.34 o
-3 7 8 746.23 711.10 28.22 o
-2 7 8 795.63 822.09 28.22 o
-1 7 8 5024.00 4865.20 65.82 o
0 7 8 818.72 827.74 33.86 o
-7 8 8 6717.04 6711.21 86.50 o
-6 8 8 4091.61 4024.85 69.59 o
-5 8 8 20.05 5.64 22.58 <
-4 8 8 14147.90 14221.30 125.92 o
-3 8 8 1678.30 1719.33 39.50 o
-2 8 8 705.84 686.65 30.10 o
-1 8 8 159.88 167.44 24.46 o
0 8 8 2271.26 2326.83 52.67 o
-8 9 8 2814.65 2819.55 62.07 o
-7 9 8 579.64 560.61 31.98 o
-6 9 8 40.25 37.63 22.58 <
-5 9 8 295.58 289.72 30.10 o
-4 9 8 2284.53 2225.25 47.03 o
-3 9 8 2071.00 2138.76 47.03 o
-2 9 8 3096.13 3129.84 58.31 o
-1 9 8 270.79 284.08 28.22 o
0 9 8 7299.15 7288.23 101.54 o
-9 10 8 175.13 165.55 28.22 o
-8 10 8 914.36 981.99 43.27 o
-7 10 8 2810.34 2710.46 56.43 o
-6 10 8 1854.92 1820.89 54.55 o
-5 10 8 2184.70 2161.31 56.43 o
-4 10 8 253.04 259.62 39.51 o
-3 10 8 2730.19 2736.80 60.19 o
-2 10 8 210.72 195.66 26.34 o
-1 10 8 738.01 775.07 37.62 o
0 10 8 309.06 284.08 31.98 o
-10 11 8 523.30 521.11 37.63 o
-9 11 8 2591.09 2591.99 62.07 o
-8 11 8 1547.60 1501.14 52.67 o
-7 11 8 648.88 662.20 35.74 o
-6 11 8 2158.99 2277.94 52.67 o
-5 11 8 2122.33 2131.23 105.34 o
-4 11 8 296.22 366.85 58.32 o
-3 11 8 535.80 594.48 33.86 o
-2 11 8 873.44 857.83 39.51 o
-1 11 8 49.50 41.39 26.34 <
0 11 8 1872.58 1815.24 56.43 o
-11 12 8 197.40 165.55 30.10 o
-10 12 8 2217.33 2131.21 62.07 o
-9 12 8 339.28 357.45 35.74 o
-8 12 8 423.99 455.27 35.74 o
-7 12 8 120.48 101.59 26.34 o
-6 12 8 78.85 50.80 47.03 <
-5 12 8 1614.57 1538.75 94.06 o
-4 12 8 537.92 560.62 65.84 o
-3 12 8 4599.45 4641.58 94.04 o
-2 12 8 247.42 246.45 30.10 o
-1 12 8 883.93 839.02 43.27 o
0 12 8 2307.60 2308.00 62.07 o
-12 13 8 2341.88 2447.19 63.95 o
-11 13 8 648.84 626.45 41.39 o
-10 13 8 733.90 665.96 41.39 o
-9 13 8 413.88 404.48 35.74 o
-8 13 8 8267.99 8415.76 112.81 o
-7 13 8 173.95 131.69 39.51 o
-6 13 8 2121.81 2067.27 109.10 o
-5 13 8 2636.51 2531.79 110.98 o
-4 13 8 2525.48 2640.90 112.86 o
-3 13 8 92.78 56.44 35.75 <
-2 13 8 265.15 280.31 39.51 o
-1 13 8 453.03 400.71 35.74 o
0 13 8 818.10 778.83 43.27 o
-13 14 8 3451.71 3438.19 152.35 o
-12 14 8 0.04 13.17 30.10 <
-11 14 8 1531.57 1559.45 56.43 o
-10 14 8 60.99 90.30 30.10 o
-9 14 8 61.35 94.07 33.86 <
-8 14 8 0.13 -80.90 33.86 <
-7 14 8 0.57 -56.44 48.91 <
-6 14 8 1845.63 1832.17 105.34 o
-5 14 8 108.75 35.75 54.56 <
-4 14 8 1300.16 1361.95 94.06 o
-3 14 8 615.97 521.11 47.03 o
-2 14 8 2180.39 2157.54 80.88 o
-1 14 8 190.38 141.10 56.44 <
-12 15 8 34.94 142.98 92.19 <
-11 15 8 1171.01 1106.13 86.53 o
-10 15 8 862.41 822.09 58.32 o
-9 15 8 262.37 269.03 47.03 o
-8 15 8 1122.38 1126.82 73.37 o
-7 15 8 215.95 114.76 56.44 <
-6 15 8 50.72 35.75 54.56 <
-5 15 8 1315.73 1303.64 94.06 o
-4 15 8 367.29 287.84 65.84 o
-3 15 8 132.34 7.53 88.42 <
0 1 9 0.59 -7.53 11.29 <
-1 2 9 2708.28 2738.65 35.74 o
0 2 9 326.19 331.11 16.93 o
-2 3 9 6037.96 5998.71 54.53 o
-1 3 9 9243.27 9257.19 69.56 o
0 3 9 17.84 9.41 13.17 <
-3 4 9 20.53 31.98 13.17 <
-2 4 9 973.34 983.87 26.34 o
-1 4 9 32.55 30.10 13.17 <
0 4 9 72.54 101.59 15.05 o
-4 5 9 135.26 142.98 16.93 o
-3 5 9 1709.53 1694.87 31.98 o
-2 5 9 4723.15 4814.53 50.78 o
-1 5 9 516.91 551.21 22.58 o
0 5 9 123.80 141.10 18.81 o
-5 6 9 909.06 910.51 39.51 o
-4 6 9 297.78 272.79 22.58 o
-3 6 9 4910.29 4983.75 56.42 o
-2 6 9 947.94 974.46 28.22 o
-1 6 9 2418.53 2439.66 43.26 o
0 6 9 320.62 295.36 28.22 o
-6 7 9 1736.72 1766.35 52.67 o
-5 7 9 3856.81 3846.26 69.59 o
-4 7 9 5.28 13.17 18.81 <
-3 7 9 2942.94 2960.59 47.02 o
-2 7 9 1569.17 1534.99 37.62 o
-1 7 9 4276.57 4350.18 63.95 o
0 7 9 177.64 195.66 26.34 o
-7 8 9 187.14 178.72 26.34 o
-6 8 9 2725.34 2710.47 60.19 o
-5 8 9 677.75 635.86 37.62 o
-4 8 9 21.09 -22.58 16.93 <
-3 8 9 207.51 238.93 22.58 o
-2 8 9 983.15 987.63 39.51 o
-1 8 9 890.66 938.73 39.51 o
0 8 9 78.40 84.66 26.34 o
-8 9 9 11.86 16.93 26.34 <
-7 9 9 244.78 248.33 28.22 o
-6 9 9 441.36 400.71 33.86 o
-5 9 9 312.35 357.45 31.98 o
-4 9 9 62.49 52.68 24.46 <
-3 9 9 731.32 769.42 39.51 o
-2 9 9 1335.99 1378.89 45.15 o
-1 9 9 342.63 366.85 31.98 o
0 9 9 99.13 111.00 28.22 o
-9 10 9 102.10 54.56 28.22 <
-8 10 9 441.12 406.36 35.74 o
-7 10 9 2475.28 2392.63 56.43 o
-6 10 9 2342.84 2356.91 56.43 o
-5 10 9 275.99 255.86 31.98 o
-4 10 9 86.37 90.30 48.91 <
-3 10 9 3006.73 2985.03 63.95 o
-2 10 9 3168.93 3080.92 62.07 o
-1 10 9 237.61 227.64 30.10 o
0 10 9 542.93 566.26 39.51 o
-10 11 9 703.91 731.80 43.27 o
-9 11 9 2962.32 3112.94 67.71 o
-8 11 9 104.67 82.78 28.22 <
-7 11 9 1338.14 1367.60 47.03 o
-6 11 9 582.96 566.26 35.74 o
-5 11 9 2996.77 2947.41 141.07 o
-4 11 9 447.22 447.74 63.96 o
-3 11 9 501.60 494.77 48.91 o
-2 11 9 1.50 -26.34 24.46 <
-1 11 9 4454.52 4329.42 78.99 o
0 11 9 561.31 556.85 39.51 o
-11 12 9 97.56 95.95 31.98 <
-10 12 9 1370.23 1365.71 52.67 o
-9 12 9 1253.56 1243.45 50.79 o
-8 12 9 122.45 129.81 30.10 o
-7 12 9 14.26 54.56 31.98 <
-6 12 9 1116.87 1166.33 73.37 o
-5 12 9 941.85 901.10 80.89 o
-4 12 9 6.37 -15.05 48.91 <
-3 12 9 63.57 39.51 39.51 <
-2 12 9 390.67 387.54 39.51 o
-1 12 9 575.62 609.53 39.51 o
0 12 9 26.90 24.46 30.10 <
-12 13 9 0.57 -65.85 48.91 <
-11 13 9 0.05 -31.98 28.22 <
-10 13 9 4.70 -50.80 28.22 <
-9 13 9 16.47 15.05 28.22 <
-8 13 9 0.18 -11.29 35.75 <
-7 13 9 15.32 18.81 37.63 <
-6 13 9 104.61 90.30 54.56 <
-5 13 9 46.58 90.30 54.56 <
-4 13 9 28.27 35.75 52.68 <
-3 13 9 28.48 9.41 39.51 <
-2 13 9 529.01 498.53 48.91 o
-1 13 9 111.36 199.42 58.32 o
-11 14 9 1040.05 822.08 77.13 o
-10 14 9 865.08 951.89 84.65 o
-9 14 9 226.37 248.33 45.15 o
-8 14 9 0.00 -13.17 39.51 <
-7 14 9 1427.91 1482.33 97.82 o
-6 14 9 955.36 934.96 84.65 o
-5 14 9 130.69 114.76 58.32 <
-4 14 9 299.73 368.73 65.85 o
-3 14 9 546.65 423.28 84.66 o
0 0 10 8323.06 8460.84 188.02 o
0 1 10 2369.52 2388.88 35.74 o
-1 2 10 4918.08 4763.71 48.90 o
0 2 10 7.10 -9.41 13.17 <
-2 3 10 64.71 67.73 15.05 o
-1 3 10 504.26 468.43 20.69 o
0 3 10 195.69 173.08 16.93 o
-3 4 10 2682.21 2676.62 37.62 o
-2 4 10 4954.60 4936.73 52.66 o
-1 4 10 268.45 242.69 18.81 o
0 4 10 7594.83 7530.62 67.69 o
-4 5 10 482.27 481.61 22.58 o
-3 5 10 6.91 1.88 15.05 <
-2 5 10 9.93 -5.64 15.05 <
-1 5 10 70.59 73.37 18.81 o
0 5 10 5878.59 5848.48 71.46 o
-5 6 10 584.40 573.78 35.74 o
-4 6 10 86.49 101.59 20.69 o
-3 6 10 4678.48 4682.95 56.42 o
-2 6 10 214.40 206.94 20.69 o
-1 6 10 25.75 18.81 18.81 <
0 6 10 2398.16 2274.14 56.43 o
-6 7 10 534.89 496.65 35.74 o
-5 7 10 4017.98 3763.46 71.47 o
-4 7 10 166.40 135.45 24.46 o
-3 7 10 83.02 95.95 18.81 o
-2 7 10 1720.03 1674.18 41.38 o
-1 7 10 693.30 743.09 39.51 o
0 7 10 31.31 43.27 24.46 <
-7 8 10 1.65 -20.69 24.46 <
-6 8 10 355.09 323.58 31.98 o
-5 8 10 708.74 761.90 41.39 o
-4 8 10 663.11 669.72 37.62 o
-3 8 10 3473.30 3504.05 50.78 o
-2 8 10 15.44 24.46 26.34 <
-1 8 10 1994.95 1986.40 56.43 o
0 8 10 5251.33 5277.02 86.51 o
-8 9 10 4380.72 4244.82 78.99 o
-7 9 10 47.78 58.32 26.34 <
-6 9 10 3262.09 3075.25 62.07 o
-5 9 10 1620.46 1621.52 54.55 o
-4 9 10 5555.27 5604.12 86.51 o
-3 9 10 437.40 491.01 35.74 o
-2 9 10 294.39 312.30 33.86 o
-1 9 10 533.18 607.65 39.51 o
0 9 10 226.07 235.16 31.98 o
-9 10 10 969.03 981.99 47.03 o
-8 10 10 629.92 688.54 41.39 o
-7 10 10 59.65 77.13 28.22 <
-6 10 10 108.81 114.76 28.22 o
-5 10 10 245.58 231.40 35.74 o
-4 10 10 421.84 434.58 65.84 o
-3 10 10 316.34 248.33 43.27 o
-2 10 10 2040.13 1990.15 60.19 o
-1 10 10 0.09 -9.41 28.22 <
0 10 10 65.54 62.08 30.10 <
-10 11 10 835.53 904.87 47.03 o
-9 11 10 312.13 297.24 35.74 o
-8 11 10 0.56 -16.93 28.22 <
-7 11 10 903.20 867.24 45.15 o
-6 11 10 270.49 250.21 39.51 o
-5 11 10 200.87 199.42 48.91 o
-4 11 10 1646.04 1538.74 97.82 o
-3 11 10 64.70 99.71 45.15 <
-2 11 10 0.12 -7.53 33.86 <
-1 11 10 3127.05 3026.36 73.36 o
0 11 10 27.44 45.15 30.10 <
-11 12 10 221.00 242.69 60.20 o
-10 12 10 397.59 400.71 37.63 o
-9 12 10 1169.56 1252.86 50.79 o
-8 12 10 1444.73 1440.95 52.67 o
-7 12 10 1004.36 987.63 62.08 o
-6 12 10 1514.30 1482.32 63.96 o
-5 12 10 120.99 169.32 58.32 <
-4 12 10 2038.12 2110.54 94.05 o
-3 12 10 288.15 250.21 48.91 o
-2 12 10 74.55 159.91 47.03 o
-1 12 10 9.35 41.39 52.68 <
-10 13 10 0.63 -37.63 63.97 <
-9 13 10 1438.67 1369.46 116.63 o
-8 13 10 791.78 748.73 79.01 o
-7 13 10 1532.98 1662.91 75.24 o
-6 13 10 117.94 150.51 60.20 <
-5 13 10 37.17 77.13 56.44 <
-4 13 10 4027.89 4177.19 173.03 o
-3 13 10 880.16 662.19 92.18 o
0 1 11 0.29 7.53 16.93 <
-1 2 11 793.04 801.40 26.34 o
0 2 11 1.33 -11.29 15.05 <
-2 3 11 2671.35 2631.48 37.62 o
-1 3 11 4982.38 4949.90 54.54 o
0 3 11 27.18 43.27 16.93 <
-3 4 11 2.46 -13.17 15.05 <
-2 4 11 694.80 690.41 24.46 o
-1 4 11 180.15 186.25 18.81 o
0 4 11 14.32 28.22 15.05 <
-4 5 11 3.62 -15.05 20.69 <
-3 5 11 1892.87 1832.17 37.62 o
-2 5 11 2049.88 2014.61 43.26 o
-1 5 11 183.42 186.25 22.58 o
0 5 11 36.71 65.85 26.34 <
-5 6 11 588.02 641.51 39.51 o
-4 6 11 93.58 79.02 24.46 o
-3 6 11 3729.08 3803.03 54.54 o
-2 6 11 755.78 731.80 30.10 o
-1 6 11 1619.76 1629.04 48.91 o
0 6 11 320.78 284.08 31.98 o
-6 7 11 1075.57 1053.46 43.27 o
-5 7 11 2241.92 2281.69 60.19 o
-4 7 11 0.42 -33.86 24.46 <
-3 7 11 880.26 876.65 31.98 o
-2 7 11 797.38 799.52 37.62 o
-1 7 11 2510.02 2528.05 65.83 o
0 7 11 520.93 509.82 41.39 o
-7 8 11 267.49 238.93 33.86 o
-6 8 11 1391.80 1501.15 50.79 o
-5 8 11 525.50 524.87 39.51 o
-4 8 11 160.26 163.67 30.10 o
-3 8 11 48.54 48.91 28.22 <
-2 8 11 321.18 270.91 33.86 o
-1 8 11 565.55 617.05 43.27 o
0 8 11 6.41 15.05 31.98 <
-8 9 11 3.70 -5.64 30.10 <
-7 9 11 17.13 35.75 30.10 <
-6 9 11 590.63 585.07 37.62 o
-5 9 11 413.27 413.88 35.74 o
-4 9 11 112.28 71.49 33.86 <
-3 9 11 674.99 716.75 60.20 o
-2 9 11 1155.95 1124.94 50.79 o
-1 9 11 125.47 152.39 33.86 o
0 9 11 41.61 56.44 31.98 <
-9 10 11 37.39 60.20 30.10 <
-8 10 11 240.13 252.09 35.74 o
-7 10 11 2128.92 2101.12 62.07 o
-6 10 11 1357.53 1296.11 47.03 o
-5 10 11 201.37 142.98 43.27 o
-4 10 11 10.74 -1.88 37.63 <
-3 10 11 1146.04 1205.83 73.37 o
-2 10 11 1527.47 1655.39 92.17 o
-1 10 11 19.29 69.61 31.98 <
0 10 11 589.81 654.67 94.06 o
-10 11 11 332.56 383.78 114.76 o
-9 11 11 1623.06 1662.90 120.39 o
-8 11 11 15.90 50.80 30.10 <
-7 11 11 672.28 688.53 47.03 o
-6 11 11 507.21 447.74 45.15 o
-5 11 11 2030.92 2074.80 79.00 o
-4 11 11 237.02 182.49 58.32 o
-3 11 11 257.57 265.26 50.79 o
-2 11 11 3.36 -3.76 67.73 <
-1 11 11 2290.25 2535.60 216.32 o
-7 12 11 75.13 63.97 56.44 <
-6 12 11 720.80 671.60 77.13 o
-5 12 11 222.34 242.69 62.08 o
0 0 12 13686.00 13731.40 274.40 o
0 1 12 138.50 84.66 20.69 o
-1 2 12 4.93 -24.46 18.81 <
0 2 12 794.35 795.76 30.10 o
-2 3 12 1008.00 1021.49 30.10 o
-1 3 12 1770.80 1794.56 37.62 o
0 3 12 1546.44 1523.71 35.74 o
-3 4 12 291.73 278.43 22.58 o
-2 4 12 13.33 -5.64 18.81 <
-1 4 12 128.37 146.74 18.81 o
0 4 12 1960.51 1920.57 41.38 o
-4 5 12 4122.54 4241.13 67.71 o
-3 5 12 387.24 421.41 26.34 o
-2 5 12 553.39 509.82 28.22 o
-1 5 12 1343.80 1424.03 37.62 o
0 5 12 1109.83 1034.65 43.27 o
-5 6 12 49.32 77.13 31.98 <
-4 6 12 991.82 1038.42 41.39 o
-3 6 12 46.19 13.17 22.58 <
-2 6 12 1154.64 1170.09 37.62 o
-1 6 12 731.41 733.68 39.51 o
0 6 12 28.64 56.44 30.10 <
-6 7 12 1296.73 1328.09 50.79 o
-5 7 12 49.45 41.39 30.10 <
-4 7 12 164.47 159.91 28.22 o
-3 7 12 110.09 103.47 30.10 o
-2 7 12 213.54 242.69 30.10 o
-1 7 12 1619.70 1557.56 58.31 o
0 7 12 272.80 289.72 39.51 o
-7 8 12 1753.71 1800.20 63.96 o
-6 8 12 940.74 970.70 43.27 o
-5 8 12 1.15 -16.93 28.22 <
-4 8 12 3692.60 3712.74 75.23 o
-3 8 12 682.99 660.32 47.03 o
-2 8 12 264.30 270.91 37.63 o
-1 8 12 8.91 -1.88 31.98 <
0 8 12 1171.95 1141.87 60.20 o
-8 9 12 1068.45 1200.20 114.75 o
-7 9 12 167.83 158.03 47.03 o
-6 9 12 26.82 33.86 28.22 <
-5 9 12 99.47 75.25 35.75 <
-4 9 12 1150.25 1241.57 60.20 o
-3 9 12 440.01 361.20 43.27 o
-2 9 12 1064.74 997.03 80.89 o
-1 9 12 1.26 -54.56 65.85 <
-6 10 12 730.51 692.29 79.01 o
-5 10 12 627.78 741.21 95.94 o
-4 10 12 12.01 22.58 69.61 <
-3 10 12 1007.90 791.98 137.33 o
0 1 13 0.16 0.00 20.69 <
-1 2 13 802.83 825.86 30.10 o
0 2 13 100.23 75.25 20.69 o
-2 3 13 1738.79 1783.28 37.62 o
-1 3 13 2374.65 2328.68 41.38 o
0 3 13 5.02 0.00 18.81 <
-3 4 13 7.54 -7.53 26.34 <
-2 4 13 272.67 263.38 24.46 o
-1 4 13 8.63 -24.46 20.69 <
0 4 13 17.25 15.05 26.34 <
-4 5 13 50.97 56.44 26.34 <
-3 5 13 460.85 442.10 31.98 o
-2 5 13 1287.59 1273.54 39.50 o
-1 5 13 127.82 111.00 26.34 o
0 5 13 37.76 41.39 26.34 <
-5 6 13 365.43 368.73 35.74 o
-4 6 13 48.10 20.69 28.22 <
-3 6 13 1565.52 1642.21 52.67 o
-2 6 13 290.33 304.77 35.74 o
-1 6 13 678.39 718.63 39.51 o
0 6 13 50.69 30.10 65.85 <
-6 7 13 552.96 592.60 88.42 o
-5 7 13 1283.54 1431.56 169.30 o
-4 7 13 0.11 56.44 97.83 <
-3 7 13 937.65 970.70 101.58 o
-2 7 13 552.44 507.94 86.54 o
-1 7 13 1527.80 1380.74 114.75 o
