#------------------------------------------------------------------------------
#$Date: 2016-02-14 06:40:26 +0200 (Sun, 14 Feb 2016) $
#$Revision: 176432 $
#$URL: svn://www.crystallography.net/cod/cif/4/00/17/4001797.cif $
#------------------------------------------------------------------------------
#
# This file is available in the Crystallography Open Database (COD),
# http://www.crystallography.net/
#
# All data on this site have been placed in the public domain by the
# contributors.
#
data_4001797
loop_
_publ_author_name
'Abakumov, Artem M.'
'Erni, Rolf'
'Tsirlin, Alexander A.'
'Rossell, Marta D.'
'Batuk, Dmitry'
'N\'enert, Gwilherm'
'Van Tendeloo, Gustaaf'
_publ_section_title
;
 Frustrated Octahedral Tilting Distortion in the Incommensurately
 Modulated Li3xNd2/3--xTiO3 Perovskites
;
_journal_issue                   13
_journal_name_full               'Chemistry of Materials'
_journal_page_first              2670
_journal_page_last               2683
_journal_paper_doi               10.1021/cm4012052
_journal_volume                  25
_journal_year                    2013
_chemical_formula_sum            'Li25 Nd125 O600 Ti200'
_space_group_IT_number           6
_symmetry_Int_Tables_number      6
_symmetry_space_group_name_Hall  'P -2y'
_symmetry_space_group_name_H-M   'P 1 m 1'
_cell_angle_alpha                90.0000
_cell_angle_beta                 90.0000
_cell_angle_gamma                90.0000
_cell_formula_units_Z            1
_cell_length_a                   38.310600
_cell_length_b                   7.724370
_cell_length_c                   38.279900
_cell_volume                     11327.989
_cod_data_source_file            cm4012052_si_003.cif
_cod_data_source_block           X
_cod_original_sg_symbol_Hall     P_-2y
_cod_database_code               4001797
loop_
_symmetry_equiv_pos_site_id
_symmetry_equiv_pos_as_xyz
1 x,y,z
2 x,-y,z
loop_
_atom_site_label
_atom_site_type_symbol
_atom_site_fract_x
_atom_site_fract_y
_atom_site_fract_z
_atom_site_occupancy
_atom_site_B_iso_or_equiv
Nd1 Nd 0.048881 0.000000 0.802260 1.0000 0.000
Nd2 Nd 0.047992 0.000000 0.195333 1.0000 0.000
Nd3 Nd 0.145358 0.000000 0.800128 1.0000 0.000
Nd4 Nd 0.144733 0.000000 0.196720 1.0000 0.000
Nd5 Nd 0.247674 0.000000 0.803573 1.0000 0.000
Nd6 Nd 0.247452 0.000000 0.197237 1.0000 0.000
Nd7 Nd 0.350888 0.000000 0.799040 1.0000 0.000
Nd8 Nd 0.352362 0.000000 0.197795 1.0000 0.000
Nd9 Nd 0.448478 0.000000 0.800538 1.0000 0.000
Nd10 Nd 0.451341 0.000000 0.197922 1.0000 0.000
Nd11 Nd 0.548626 0.000000 0.801923 1.0000 0.000
Nd12 Nd 0.553216 0.000000 0.197907 1.0000 0.000
Nd13 Nd 0.648876 0.000000 0.800103 1.0000 0.000
Nd14 Nd 0.650592 0.000000 0.200271 1.0000 0.000
Nd15 Nd 0.749566 0.000000 0.798117 1.0000 0.000
Nd16 Nd 0.748319 0.000000 0.202536 1.0000 0.000
Nd17 Nd 0.852603 0.000000 0.797173 1.0000 0.000
Nd18 Nd 0.853255 0.000000 0.199883 1.0000 0.000
Nd19 Nd 0.953569 0.000000 0.798214 1.0000 0.000
Nd20 Nd 0.950251 0.000000 0.198883 1.0000 0.000
Nd21 Nd 0.047960 0.000000 0.901753 1.0000 0.000
Nd22 Nd 0.046510 0.000000 0.098362 1.0000 0.000
Nd23 Nd 0.145770 0.000000 0.903128 1.0000 0.000
Nd24 Nd 0.144172 0.000000 0.096337 1.0000 0.000
Nd25 Nd 0.248566 0.000000 0.902609 1.0000 0.000
Nd26 Nd 0.247950 0.000000 0.096632 1.0000 0.000
Nd27 Nd 0.350073 0.000000 0.899205 1.0000 0.000
Nd28 Nd 0.353255 0.000000 0.100027 1.0000 0.000
Nd29 Nd 0.450151 0.000000 0.899610 1.0000 0.000
Nd30 Nd 0.452695 0.000000 0.097441 1.0000 0.000
Nd31 Nd 0.547518 0.000000 0.899878 1.0000 0.000
Nd32 Nd 0.548443 0.000000 0.099768 1.0000 0.000
Nd33 Nd 0.649708 0.000000 0.898396 1.0000 0.000
Nd34 Nd 0.650341 0.000000 0.101520 1.0000 0.000
Nd35 Nd 0.751096 0.000000 0.898218 1.0000 0.000
Nd36 Nd 0.752159 0.000000 0.102063 1.0000 0.000
Nd37 Nd 0.853809 0.000000 0.898822 1.0000 0.000
Nd38 Nd 0.854408 0.000000 0.103601 1.0000 0.000
Nd39 Nd 0.953777 0.000000 0.900131 1.0000 0.000
Nd40 Nd 0.951030 0.000000 0.099537 1.0000 0.000
Nd41 Nd 0.049091 0.000000 0.999296 1.0000 0.000
Nd42 Nd 0.146787 0.000000 0.998610 1.0000 0.000
Nd43 Nd 0.240705 0.000000 0.999097 1.0000 0.000
Nd44 Nd 0.349537 0.000000 0.999014 1.0000 0.000
Nd45 Nd 0.445320 0.000000 0.999989 1.0000 0.000
Nd46 Nd 0.546935 0.000000 0.001480 1.0000 0.000
Nd47 Nd 0.645383 0.000000 0.001124 1.0000 0.000
Nd48 Nd 0.750876 0.000000 0.003399 1.0000 0.000
Nd49 Nd 0.856722 0.000000 0.000532 1.0000 0.000
Nd50 Nd 0.952468 0.000000 0.998528 1.0000 0.000
Nd51 Nd 0.047894 0.000000 0.297392 1.0000 0.000
Nd52 Nd 0.050751 0.000000 0.699882 1.0000 0.000
Nd53 Nd 0.145055 0.000000 0.296767 1.0000 0.000
Nd54 Nd 0.145529 0.000000 0.701667 1.0000 0.000
Nd55 Nd 0.249765 0.000000 0.297332 1.0000 0.000
Nd56 Nd 0.245900 0.000000 0.702747 1.0000 0.000
Nd57 Nd 0.350780 0.000000 0.299904 1.0000 0.000
Nd58 Nd 0.351181 0.000000 0.702598 1.0000 0.000
Nd59 Nd 0.450545 0.000000 0.298227 1.0000 0.000
Nd60 Nd 0.449606 0.000000 0.699737 1.0000 0.000
Nd61 Nd 0.551962 0.000000 0.298483 1.0000 0.000
Nd62 Nd 0.546936 0.000000 0.698315 1.0000 0.000
Nd63 Nd 0.649085 0.000000 0.303107 1.0000 0.000
Nd64 Nd 0.646081 0.000000 0.700041 1.0000 0.000
Nd65 Nd 0.748057 0.000000 0.301987 1.0000 0.000
Nd66 Nd 0.751556 0.000000 0.696929 1.0000 0.000
Nd67 Nd 0.852155 0.000000 0.302475 1.0000 0.000
Nd68 Nd 0.854795 0.000000 0.697268 1.0000 0.000
Nd69 Nd 0.951907 0.000000 0.299844 1.0000 0.000
Nd70 Nd 0.047712 0.000000 0.399618 1.0000 0.000
Nd71 Nd 0.050113 0.000000 0.598406 1.0000 0.000
Nd72 Nd 0.145503 0.000000 0.399439 1.0000 0.000
Nd73 Nd 0.143799 0.000000 0.600153 1.0000 0.000
Nd74 Nd 0.248065 0.000000 0.398893 1.0000 0.000
Nd75 Nd 0.244438 0.000000 0.601907 1.0000 0.000
Nd76 Nd 0.348628 0.000000 0.402230 1.0000 0.000
Nd77 Nd 0.349439 0.000000 0.600331 1.0000 0.000
Nd78 Nd 0.450344 0.000000 0.400419 1.0000 0.000
Nd79 Nd 0.449230 0.000000 0.597144 1.0000 0.000
Nd80 Nd 0.554143 0.000000 0.398754 1.0000 0.000
Nd81 Nd 0.546830 0.000000 0.597474 1.0000 0.000
Nd82 Nd 0.652310 0.000000 0.400502 1.0000 0.000
Nd83 Nd 0.650115 0.000000 0.596561 1.0000 0.000
Nd84 Nd 0.749580 0.000000 0.403432 1.0000 0.000
Nd85 Nd 0.753947 0.000000 0.595431 1.0000 0.000
Nd86 Nd 0.849046 0.000000 0.401912 1.0000 0.000
Nd87 Nd 0.854169 0.000000 0.596503 1.0000 0.000
Nd88 Nd 0.949940 0.000000 0.401387 1.0000 0.000
Nd89 Nd 0.951087 0.000000 0.595381 1.0000 0.000
Nd90 Nd 0.046368 0.000000 0.500668 1.0000 0.000
Nd91 Nd 0.147118 0.000000 0.501179 1.0000 0.000
Nd92 Nd 0.243420 0.000000 0.500834 1.0000 0.000
Nd93 Nd 0.346386 0.000000 0.499969 1.0000 0.000
Nd94 Nd 0.453684 0.000000 0.497922 1.0000 0.000
Nd95 Nd 0.552710 0.000000 0.498029 1.0000 0.000
Nd96 Nd 0.655191 0.000000 0.497945 1.0000 0.000
Nd97 Nd 0.750891 0.000000 0.496556 1.0000 0.000
Nd98 Nd 0.847301 0.000000 0.498795 1.0000 0.000
Nd99 Nd 0.948884 0.000000 0.496440 1.0000 0.000
Nd10 Nd 0.951600 0.000000 0.697819 1.0000 0.000
Nd10 Nd 0.648946 0.500000 0.808314 1.0000 0.000
Nd10 Nd 0.749814 0.500000 0.201404 1.0000 0.000
Nd10 Nd 0.852278 0.500000 0.802863 1.0000 0.000
Nd10 Nd 0.246990 0.500000 0.892056 1.0000 0.000
Nd10 Nd 0.246110 0.500000 0.105323 1.0000 0.000
Nd10 Nd 0.451632 0.500000 0.899878 1.0000 0.000
Nd10 Nd 0.751997 0.500000 0.907677 1.0000 0.000
Nd10 Nd 0.345552 0.500000 0.001782 1.0000 0.000
Nd10 Nd 0.556238 0.500000 0.001812 1.0000 0.000
Nd11 Nd 0.753575 0.500000 0.002871 1.0000 0.000
Nd11 Nd 0.246928 0.500000 0.303125 1.0000 0.000
Nd11 Nd 0.344293 0.500000 0.702682 1.0000 0.000
Nd11 Nd 0.453810 0.500000 0.303935 1.0000 0.000
Nd11 Nd 0.548442 0.500000 0.295573 1.0000 0.000
Nd11 Nd 0.546907 0.500000 0.704669 1.0000 0.000
Nd11 Nd 0.651864 0.500000 0.699703 1.0000 0.000
Nd11 Nd 0.751242 0.500000 0.699888 1.0000 0.000
Nd11 Nd 0.842529 0.500000 0.300636 1.0000 0.000
Nd11 Nd 0.144818 0.500000 0.403251 1.0000 0.000
Nd12 Nd 0.347123 0.500000 0.595451 1.0000 0.000
Nd12 Nd 0.445894 0.500000 0.399040 1.0000 0.000
Nd12 Nd 0.651475 0.500000 0.602535 1.0000 0.000
Nd12 Nd 0.944680 0.500000 0.403887 1.0000 0.000
Nd12 Nd 0.549573 0.500000 0.503284 1.0000 0.000
Nd12 Nd 0.347800 0.500000 0.200636 1.0000 0.000
Li1 Li 0.130538 0.500000 0.798795 1.0000 0.000
Li2 Li 0.238906 0.500000 0.195843 1.0000 0.000
Li3 Li 0.452518 0.500000 0.182052 1.0000 0.000
Li4 Li 0.651772 0.500000 0.177991 1.0000 0.000
Li5 Li 0.963021 0.500000 0.790640 1.0000 0.000
Li6 Li 0.338092 0.500000 0.095467 1.0000 0.000
Li7 Li 0.858011 0.500000 0.892534 1.0000 0.000
Li8 Li 0.938806 0.500000 0.093297 1.0000 0.000
Li9 Li 0.043505 0.500000 0.999876 1.0000 0.000
Li10 Li 0.239014 0.500000 0.998201 1.0000 0.000
Li11 Li 0.445887 0.500000 0.997845 1.0000 0.000
Li12 Li 0.036369 0.500000 0.296512 1.0000 0.000
Li13 Li 0.036964 0.500000 0.687887 1.0000 0.000
Li14 Li 0.135331 0.500000 0.293362 1.0000 0.000
Li15 Li 0.223812 0.500000 0.695969 1.0000 0.000
Li16 Li 0.436870 0.500000 0.689116 1.0000 0.000
Li17 Li 0.750072 0.500000 0.292210 1.0000 0.000
Li18 Li 0.862509 0.500000 0.692380 1.0000 0.000
Li19 Li 0.036459 0.500000 0.609088 1.0000 0.000
Li20 Li 0.234151 0.500000 0.608859 1.0000 0.000
Li21 Li 0.331808 0.500000 0.403406 1.0000 0.000
Li22 Li 0.757538 0.500000 0.587984 1.0000 0.000
Li23 Li 0.953423 0.500000 0.581596 1.0000 0.000
Li24 Li 0.444495 0.500000 0.500089 1.0000 0.000
Li25 Li 0.647943 0.500000 0.496046 1.0000 0.000
Ti1 Ti 0.002561 0.734673 0.749437 1.0000 0.000
Ti3 Ti 0.999839 0.269799 0.246285 1.0000 0.000
Ti5 Ti 0.098281 0.725124 0.749882 1.0000 0.000
Ti7 Ti 0.096905 0.270384 0.247418 1.0000 0.000
Ti9 Ti 0.196373 0.727696 0.749263 1.0000 0.000
Ti11 Ti 0.195695 0.265800 0.250254 1.0000 0.000
Ti13 Ti 0.295468 0.743321 0.751137 1.0000 0.000
Ti15 Ti 0.298707 0.258122 0.250996 1.0000 0.000
Ti17 Ti 0.399611 0.730534 0.750279 1.0000 0.000
Ti19 Ti 0.398867 0.266674 0.249649 1.0000 0.000
Ti21 Ti 0.497829 0.740121 0.753103 1.0000 0.000
Ti23 Ti 0.500132 0.255021 0.246073 1.0000 0.000
Ti25 Ti 0.598549 0.744687 0.752515 1.0000 0.000
Ti27 Ti 0.602134 0.265385 0.247938 1.0000 0.000
Ti29 Ti 0.701799 0.741211 0.751616 1.0000 0.000
Ti31 Ti 0.698242 0.266216 0.251418 1.0000 0.000
Ti33 Ti 0.801694 0.743734 0.749239 1.0000 0.000
Ti35 Ti 0.801063 0.248907 0.249359 1.0000 0.000
Ti37 Ti 0.903768 0.733067 0.749338 1.0000 0.000
Ti39 Ti 0.902547 0.270283 0.247615 1.0000 0.000
Ti41 Ti 0.001296 0.723332 0.849644 1.0000 0.000
Ti43 Ti 0.999758 0.279018 0.148281 1.0000 0.000
Ti45 Ti 0.098373 0.729227 0.851874 1.0000 0.000
Ti47 Ti 0.097165 0.276888 0.148516 1.0000 0.000
Ti49 Ti 0.196207 0.743819 0.847669 1.0000 0.000
Ti51 Ti 0.195427 0.256239 0.150880 1.0000 0.000
Ti53 Ti 0.299136 0.737812 0.847501 1.0000 0.000
Ti55 Ti 0.298592 0.256938 0.150856 1.0000 0.000
Ti57 Ti 0.397703 0.731440 0.848682 1.0000 0.000
Ti59 Ti 0.401498 0.264555 0.148037 1.0000 0.000
Ti61 Ti 0.499493 0.728234 0.850275 1.0000 0.000
Ti63 Ti 0.502403 0.270644 0.148511 1.0000 0.000
Ti65 Ti 0.597841 0.739372 0.853817 1.0000 0.000
Ti67 Ti 0.600992 0.270125 0.148302 1.0000 0.000
Ti69 Ti 0.701848 0.741352 0.851629 1.0000 0.000
Ti71 Ti 0.701317 0.258601 0.149391 1.0000 0.000
Ti73 Ti 0.800360 0.737742 0.850819 1.0000 0.000
Ti75 Ti 0.804404 0.266843 0.149106 1.0000 0.000
Ti77 Ti 0.903673 0.743032 0.851723 1.0000 0.000
Ti79 Ti 0.902766 0.273697 0.149423 1.0000 0.000
Ti81 Ti 0.999445 0.724360 0.948984 1.0000 0.000
Ti83 Ti 0.998462 0.274793 0.048826 1.0000 0.000
Ti85 Ti 0.097081 0.725790 0.950818 1.0000 0.000
Ti87 Ti 0.095911 0.269268 0.050658 1.0000 0.000
Ti89 Ti 0.196037 0.731927 0.948911 1.0000 0.000
Ti91 Ti 0.195152 0.266576 0.050103 1.0000 0.000
Ti93 Ti 0.297754 0.738964 0.948781 1.0000 0.000
Ti95 Ti 0.297322 0.251613 0.049627 1.0000 0.000
Ti97 Ti 0.397774 0.738838 0.948767 1.0000 0.000
Ti99 Ti 0.399909 0.271535 0.051577 1.0000 0.000
Ti10 Ti 0.499016 0.742872 0.952457 1.0000 0.000
Ti10 Ti 0.498532 0.270471 0.050509 1.0000 0.000
Ti10 Ti 0.601585 0.738586 0.950431 1.0000 0.000
Ti10 Ti 0.602245 0.259663 0.052031 1.0000 0.000
Ti10 Ti 0.698617 0.746683 0.953114 1.0000 0.000
Ti11 Ti 0.700897 0.265537 0.051579 1.0000 0.000
Ti11 Ti 0.803415 0.752323 0.951853 1.0000 0.000
Ti11 Ti 0.803588 0.259059 0.052283 1.0000 0.000
Ti11 Ti 0.901489 0.724006 0.950886 1.0000 0.000
Ti11 Ti 0.900088 0.272789 0.049133 1.0000 0.000
Ti12 Ti 0.999576 0.730796 0.348054 1.0000 0.000
Ti12 Ti 0.997310 0.260163 0.647871 1.0000 0.000
Ti12 Ti 0.096489 0.731778 0.348408 1.0000 0.000
Ti12 Ti 0.097252 0.280095 0.650619 1.0000 0.000
Ti12 Ti 0.197513 0.748386 0.351528 1.0000 0.000
Ti13 Ti 0.194175 0.257510 0.649419 1.0000 0.000
Ti13 Ti 0.298484 0.732823 0.352452 1.0000 0.000
Ti13 Ti 0.294533 0.259258 0.648688 1.0000 0.000
Ti13 Ti 0.396813 0.743710 0.349820 1.0000 0.000
Ti13 Ti 0.398389 0.255944 0.649214 1.0000 0.000
Ti14 Ti 0.503499 0.748285 0.352458 1.0000 0.000
Ti14 Ti 0.497344 0.271788 0.649944 1.0000 0.000
Ti14 Ti 0.603410 0.727727 0.349370 1.0000 0.000
Ti14 Ti 0.597491 0.254609 0.648530 1.0000 0.000
Ti14 Ti 0.700338 0.723022 0.350160 1.0000 0.000
Ti15 Ti 0.701866 0.250102 0.648037 1.0000 0.000
Ti15 Ti 0.797402 0.743092 0.352632 1.0000 0.000
Ti15 Ti 0.803797 0.262236 0.648125 1.0000 0.000
Ti15 Ti 0.900266 0.741620 0.347626 1.0000 0.000
Ti15 Ti 0.901060 0.269777 0.647705 1.0000 0.000
Ti16 Ti 0.999751 0.732390 0.449269 1.0000 0.000
Ti16 Ti 0.000876 0.271610 0.547537 1.0000 0.000
Ti16 Ti 0.096753 0.741273 0.452964 1.0000 0.000
Ti16 Ti 0.098702 0.276529 0.550997 1.0000 0.000
Ti16 Ti 0.198385 0.730605 0.453370 1.0000 0.000
Ti17 Ti 0.196164 0.274002 0.550771 1.0000 0.000
Ti17 Ti 0.295911 0.738137 0.451225 1.0000 0.000
Ti17 Ti 0.295628 0.257814 0.548949 1.0000 0.000
Ti17 Ti 0.397281 0.738389 0.451387 1.0000 0.000
Ti17 Ti 0.398677 0.263285 0.546906 1.0000 0.000
Ti18 Ti 0.500591 0.735588 0.450467 1.0000 0.000
Ti18 Ti 0.497878 0.261592 0.551552 1.0000 0.000
Ti18 Ti 0.602013 0.732322 0.447786 1.0000 0.000
Ti18 Ti 0.601887 0.251449 0.547860 1.0000 0.000
Ti18 Ti 0.700659 0.725641 0.447933 1.0000 0.000
Ti19 Ti 0.703597 0.263364 0.547838 1.0000 0.000
Ti19 Ti 0.798717 0.720903 0.450228 1.0000 0.000
Ti19 Ti 0.802528 0.270731 0.548519 1.0000 0.000
Ti19 Ti 0.896127 0.736381 0.449943 1.0000 0.000
Ti19 Ti 0.900587 0.270610 0.547254 1.0000 0.000
O1 O 0.988019 0.000000 0.745487 1.0000 0.000
O2 O 0.995259 0.000000 0.258400 1.0000 0.000
O3 O 0.107720 0.000000 0.753017 1.0000 0.000
O4 O 0.109863 0.000000 0.246004 1.0000 0.000
O5 O 0.192702 0.000000 0.742705 1.0000 0.000
O6 O 0.192805 0.000000 0.254570 1.0000 0.000
O7 O 0.309685 0.000000 0.746219 1.0000 0.000
O8 O 0.312690 0.000000 0.252741 1.0000 0.000
O9 O 0.393820 0.000000 0.754934 1.0000 0.000
O10 O 0.394986 0.000000 0.243301 1.0000 0.000
O11 O 0.505169 0.000000 0.741744 1.0000 0.000
O12 O 0.504794 0.000000 0.260301 1.0000 0.000
O13 O 0.592130 0.000000 0.756962 1.0000 0.000
O14 O 0.591451 0.000000 0.246232 1.0000 0.000
O15 O 0.705450 0.000000 0.741631 1.0000 0.000
O16 O 0.708682 0.000000 0.253172 1.0000 0.000
O17 O 0.786326 0.000000 0.748972 1.0000 0.000
O18 O 0.785952 0.000000 0.253022 1.0000 0.000
O19 O 0.905193 0.000000 0.758592 1.0000 0.000
O20 O 0.903811 0.000000 0.242974 1.0000 0.000
O21 O 0.004832 0.000000 0.857467 1.0000 0.000
O22 O 0.005790 0.000000 0.143439 1.0000 0.000
O23 O 0.096236 0.000000 0.840129 1.0000 0.000
O24 O 0.095850 0.000000 0.156052 1.0000 0.000
O25 O 0.210030 0.000000 0.853886 1.0000 0.000
O26 O 0.211495 0.000000 0.146500 1.0000 0.000
O27 O 0.295357 0.000000 0.859968 1.0000 0.000
O28 O 0.290500 0.000000 0.145204 1.0000 0.000
O29 O 0.408253 0.000000 0.845848 1.0000 0.000
O30 O 0.404358 0.000000 0.160282 1.0000 0.000
O31 O 0.495255 0.000000 0.857483 1.0000 0.000
O32 O 0.491919 0.000000 0.143450 1.0000 0.000
O33 O 0.604657 0.000000 0.840691 1.0000 0.000
O34 O 0.604592 0.000000 0.158847 1.0000 0.000
O35 O 0.690943 0.000000 0.853720 1.0000 0.000
O36 O 0.689262 0.000000 0.147165 1.0000 0.000
O37 O 0.807184 0.000000 0.857696 1.0000 0.000
O38 O 0.805123 0.000000 0.146256 1.0000 0.000
O39 O 0.888104 0.000000 0.845454 1.0000 0.000
O40 O 0.893133 0.000000 0.155041 1.0000 0.000
O41 O 0.997228 0.000000 0.943643 1.0000 0.000
O42 O 0.994969 0.000000 0.056063 1.0000 0.000
O43 O 0.105546 0.000000 0.954234 1.0000 0.000
O44 O 0.107608 0.000000 0.043413 1.0000 0.000
O45 O 0.196879 0.000000 0.946375 1.0000 0.000
O46 O 0.196312 0.000000 0.054263 1.0000 0.000
O47 O 0.309042 0.000000 0.946792 1.0000 0.000
O48 O 0.311936 0.000000 0.055997 1.0000 0.000
O49 O 0.394139 0.000000 0.957796 1.0000 0.000
O50 O 0.394243 0.000000 0.042273 1.0000 0.000
O51 O 0.502073 0.000000 0.938648 1.0000 0.000
O52 O 0.505564 0.000000 0.057005 1.0000 0.000
O53 O 0.591250 0.000000 0.957114 1.0000 0.000
O54 O 0.593047 0.000000 0.042024 1.0000 0.000
O55 O 0.703317 0.000000 0.937425 1.0000 0.000
O56 O 0.708335 0.000000 0.054322 1.0000 0.000
O57 O 0.790675 0.000000 0.945593 1.0000 0.000
O58 O 0.789621 0.000000 0.053065 1.0000 0.000
O59 O 0.902777 0.000000 0.957114 1.0000 0.000
O60 O 0.907597 0.000000 0.041700 1.0000 0.000
O61 O 0.007376 0.000000 0.343977 1.0000 0.000
O62 O 0.008837 0.000000 0.656746 1.0000 0.000
O63 O 0.092882 0.000000 0.356876 1.0000 0.000
O64 O 0.091619 0.000000 0.642567 1.0000 0.000
O65 O 0.214057 0.000000 0.345723 1.0000 0.000
O66 O 0.210515 0.000000 0.653578 1.0000 0.000
O67 O 0.294483 0.000000 0.343481 1.0000 0.000
O68 O 0.290268 0.000000 0.649224 1.0000 0.000
O69 O 0.409469 0.000000 0.356277 1.0000 0.000
O70 O 0.411118 0.000000 0.642622 1.0000 0.000
O71 O 0.492994 0.000000 0.340831 1.0000 0.000
O72 O 0.493625 0.000000 0.655487 1.0000 0.000
O73 O 0.607825 0.000000 0.357713 1.0000 0.000
O74 O 0.611508 0.000000 0.645309 1.0000 0.000
O75 O 0.692750 0.000000 0.346299 1.0000 0.000
O76 O 0.691574 0.000000 0.659302 1.0000 0.000
O77 O 0.809849 0.000000 0.345762 1.0000 0.000
O78 O 0.805493 0.000000 0.658740 1.0000 0.000
O79 O 0.891392 0.000000 0.358582 1.0000 0.000
O80 O 0.889647 0.000000 0.647161 1.0000 0.000
O81 O 0.994913 0.000000 0.457335 1.0000 0.000
O82 O 0.991119 0.000000 0.543648 1.0000 0.000
O83 O 0.102323 0.000000 0.440584 1.0000 0.000
O84 O 0.102060 0.000000 0.555263 1.0000 0.000
O85 O 0.196011 0.000000 0.457737 1.0000 0.000
O86 O 0.196361 0.000000 0.541642 1.0000 0.000
O87 O 0.308562 0.000000 0.450981 1.0000 0.000
O88 O 0.310384 0.000000 0.551188 1.0000 0.000
O89 O 0.398737 0.000000 0.439529 1.0000 0.000
O90 O 0.396538 0.000000 0.560823 1.0000 0.000
O91 O 0.506906 0.000000 0.457710 1.0000 0.000
O92 O 0.505947 0.000000 0.539637 1.0000 0.000
O93 O 0.593173 0.000000 0.444996 1.0000 0.000
O94 O 0.596644 0.000000 0.563295 1.0000 0.000
O95 O 0.703966 0.000000 0.451760 1.0000 0.000
O96 O 0.707128 0.000000 0.552084 1.0000 0.000
O97 O 0.795276 0.000000 0.454841 1.0000 0.000
O98 O 0.790292 0.000000 0.545161 1.0000 0.000
O99 O 0.904842 0.000000 0.444571 1.0000 0.000
O100 O 0.903413 0.000000 0.557397 1.0000 0.000
O101 O 0.004934 0.500000 0.758860 1.0000 0.000
O102 O 0.012617 0.500000 0.248124 1.0000 0.000
O103 O 0.085932 0.500000 0.739199 1.0000 0.000
O104 O 0.091531 0.500000 0.262701 1.0000 0.000
O105 O 0.212775 0.500000 0.747867 1.0000 0.000
O106 O 0.214726 0.500000 0.246162 1.0000 0.000
O107 O 0.298335 0.500000 0.748816 1.0000 0.000
O108 O 0.294993 0.500000 0.240310 1.0000 0.000
O109 O 0.406221 0.500000 0.733861 1.0000 0.000
O110 O 0.413210 0.500000 0.258571 1.0000 0.000
O111 O 0.494905 0.500000 0.746942 1.0000 0.000
O112 O 0.493005 0.500000 0.248034 1.0000 0.000
O113 O 0.604163 0.500000 0.738978 1.0000 0.000
O114 O 0.601016 0.500000 0.261469 1.0000 0.000
O115 O 0.684498 0.500000 0.754849 1.0000 0.000
O116 O 0.691837 0.500000 0.238159 1.0000 0.000
O117 O 0.807425 0.500000 0.754794 1.0000 0.000
O118 O 0.802584 0.500000 0.248944 1.0000 0.000
O119 O 0.885493 0.500000 0.746587 1.0000 0.000
O120 O 0.889253 0.500000 0.259649 1.0000 0.000
O121 O 0.986894 0.500000 0.838458 1.0000 0.000
O122 O 0.987564 0.500000 0.159928 1.0000 0.000
O123 O 0.112298 0.500000 0.850624 1.0000 0.000
O124 O 0.111589 0.500000 0.142227 1.0000 0.000
O125 O 0.198241 0.500000 0.851462 1.0000 0.000
O126 O 0.198077 0.500000 0.149315 1.0000 0.000
O127 O 0.303865 0.500000 0.853559 1.0000 0.000
O128 O 0.312873 0.500000 0.147800 1.0000 0.000
O129 O 0.398027 0.500000 0.863346 1.0000 0.000
O130 O 0.388121 0.500000 0.146499 1.0000 0.000
O131 O 0.511271 0.500000 0.843676 1.0000 0.000
O132 O 0.500807 0.500000 0.162305 1.0000 0.000
O133 O 0.597279 0.500000 0.849852 1.0000 0.000
O134 O 0.590088 0.500000 0.149124 1.0000 0.000
O135 O 0.702309 0.500000 0.839346 1.0000 0.000
O136 O 0.702441 0.500000 0.160686 1.0000 0.000
O137 O 0.785695 0.500000 0.851328 1.0000 0.000
O138 O 0.789916 0.500000 0.155733 1.0000 0.000
O139 O 0.901887 0.500000 0.852187 1.0000 0.000
O140 O 0.911642 0.500000 0.136540 1.0000 0.000
O141 O 0.011577 0.500000 0.961252 1.0000 0.000
O142 O 0.012693 0.500000 0.039049 1.0000 0.000
O143 O 0.095241 0.500000 0.937823 1.0000 0.000
O144 O 0.095945 0.500000 0.058111 1.0000 0.000
O145 O 0.213379 0.500000 0.951757 1.0000 0.000
O146 O 0.213148 0.500000 0.048501 1.0000 0.000
O147 O 0.294836 0.500000 0.962944 1.0000 0.000
O148 O 0.296474 0.500000 0.047017 1.0000 0.000
O149 O 0.411870 0.500000 0.946788 1.0000 0.000
O150 O 0.414459 0.500000 0.048941 1.0000 0.000
O151 O 0.487742 0.500000 0.956197 1.0000 0.000
O152 O 0.495887 0.500000 0.032471 1.0000 0.000
O153 O 0.594021 0.500000 0.946270 1.0000 0.000
O154 O 0.597621 0.500000 0.051138 1.0000 0.000
O155 O 0.698934 0.500000 0.951001 1.0000 0.000
O156 O 0.698223 0.500000 0.036740 1.0000 0.000
O157 O 0.796696 0.500000 0.952715 1.0000 0.000
O158 O 0.801773 0.500000 0.042049 1.0000 0.000
O159 O 0.889360 0.500000 0.936916 1.0000 0.000
O160 O 0.895366 0.500000 0.062886 1.0000 0.000
O161 O 0.987328 0.500000 0.359315 1.0000 0.000
O162 O 0.992706 0.500000 0.641560 1.0000 0.000
O163 O 0.115449 0.500000 0.344096 1.0000 0.000
O164 O 0.112713 0.500000 0.658582 1.0000 0.000
O165 O 0.193947 0.500000 0.351397 1.0000 0.000
O166 O 0.196480 0.500000 0.646492 1.0000 0.000
O167 O 0.313907 0.500000 0.353665 1.0000 0.000
O168 O 0.313673 0.500000 0.648398 1.0000 0.000
O169 O 0.401026 0.500000 0.342418 1.0000 0.000
O170 O 0.390631 0.500000 0.659382 1.0000 0.000
O171 O 0.505027 0.500000 0.355281 1.0000 0.000
O172 O 0.515242 0.500000 0.648099 1.0000 0.000
O173 O 0.587147 0.500000 0.343864 1.0000 0.000
O174 O 0.594654 0.500000 0.661525 1.0000 0.000
O175 O 0.716562 0.500000 0.350784 1.0000 0.000
O176 O 0.705735 0.500000 0.646788 1.0000 0.000
O177 O 0.797854 0.500000 0.347632 1.0000 0.000
O178 O 0.787393 0.500000 0.647880 1.0000 0.000
O179 O 0.907714 0.500000 0.348703 1.0000 0.000
O180 O 0.905257 0.500000 0.660869 1.0000 0.000
O181 O 0.999192 0.500000 0.436879 1.0000 0.000
O182 O 0.003874 0.500000 0.564486 1.0000 0.000
O183 O 0.099511 0.500000 0.449480 1.0000 0.000
O184 O 0.090994 0.500000 0.537336 1.0000 0.000
O185 O 0.198379 0.500000 0.436868 1.0000 0.000
O186 O 0.209011 0.500000 0.562604 1.0000 0.000
O187 O 0.301215 0.500000 0.444828 1.0000 0.000
O188 O 0.298797 0.500000 0.555223 1.0000 0.000
O189 O 0.413042 0.500000 0.456196 1.0000 0.000
O190 O 0.411030 0.500000 0.542643 1.0000 0.000
O191 O 0.494139 0.500000 0.436920 1.0000 0.000
O192 O 0.502587 0.500000 0.551835 1.0000 0.000
O193 O 0.604981 0.500000 0.465449 1.0000 0.000
O194 O 0.605875 0.500000 0.542977 1.0000 0.000
O195 O 0.687129 0.500000 0.457134 1.0000 0.000
O196 O 0.689527 0.500000 0.554366 1.0000 0.000
O197 O 0.809797 0.500000 0.439272 1.0000 0.000
O198 O 0.802483 0.500000 0.561535 1.0000 0.000
O199 O 0.902806 0.500000 0.456106 1.0000 0.000
O200 O 0.889175 0.500000 0.548214 1.0000 0.000
O201 O 0.049596 0.809612 0.751170 1.0000 0.000
O203 O 0.050376 0.194792 0.247011 1.0000 0.000
O205 O 0.149308 0.711291 0.746631 1.0000 0.000
O207 O 0.150087 0.292773 0.258955 1.0000 0.000
O209 O 0.249629 0.807906 0.753075 1.0000 0.000
O211 O 0.252310 0.192682 0.245635 1.0000 0.000
O213 O 0.351023 0.727754 0.744835 1.0000 0.000
O215 O 0.351302 0.291224 0.252799 1.0000 0.000
O217 O 0.450091 0.799307 0.749990 1.0000 0.000
O219 O 0.450882 0.202612 0.249346 1.0000 0.000
O221 O 0.549313 0.727514 0.752012 1.0000 0.000
O223 O 0.549825 0.266648 0.253114 1.0000 0.000
O225 O 0.648439 0.792819 0.746226 1.0000 0.000
O227 O 0.649628 0.193504 0.252998 1.0000 0.000
O229 O 0.748492 0.705855 0.753078 1.0000 0.000
O231 O 0.748042 0.291039 0.245353 1.0000 0.000
O233 O 0.847756 0.805010 0.746247 1.0000 0.000
O235 O 0.848763 0.204015 0.253357 1.0000 0.000
O237 O 0.949448 0.711471 0.758827 1.0000 0.000
O239 O 0.950286 0.263359 0.247273 1.0000 0.000
O241 O 0.050097 0.733325 0.847775 1.0000 0.000
O243 O 0.049498 0.268079 0.153254 1.0000 0.000
O245 O 0.150440 0.804814 0.852539 1.0000 0.000
O247 O 0.150226 0.196634 0.146021 1.0000 0.000
O249 O 0.250802 0.730836 0.845510 1.0000 0.000
O251 O 0.251699 0.301412 0.159302 1.0000 0.000
O253 O 0.350377 0.801531 0.850558 1.0000 0.000
O255 O 0.350292 0.196859 0.146820 1.0000 0.000
O257 O 0.450138 0.722904 0.851516 1.0000 0.000
O259 O 0.449388 0.269993 0.155092 1.0000 0.000
O261 O 0.550025 0.801999 0.850186 1.0000 0.000
O263 O 0.549303 0.198712 0.149202 1.0000 0.000
O265 O 0.649653 0.735444 0.851640 1.0000 0.000
O267 O 0.648742 0.276175 0.146985 1.0000 0.000
O269 O 0.749193 0.810495 0.845895 1.0000 0.000
O271 O 0.748564 0.205754 0.153723 1.0000 0.000
O273 O 0.847343 0.697325 0.856934 1.0000 0.000
O275 O 0.851067 0.265435 0.146906 1.0000 0.000
O277 O 0.949518 0.802960 0.847388 1.0000 0.000
O279 O 0.949921 0.195988 0.150171 1.0000 0.000
O281 O 0.049802 0.793210 0.950017 1.0000 0.000
O283 O 0.049447 0.201002 0.049209 1.0000 0.000
O285 O 0.149442 0.746542 0.945914 1.0000 0.000
O287 O 0.149317 0.259942 0.054891 1.0000 0.000
O289 O 0.251038 0.796389 0.954797 1.0000 0.000
O291 O 0.251140 0.199060 0.045476 1.0000 0.000
O293 O 0.349589 0.721351 0.948155 1.0000 0.000
O295 O 0.351725 0.302108 0.057957 1.0000 0.000
O297 O 0.448197 0.795122 0.949758 1.0000 0.000
O299 O 0.450212 0.201728 0.049476 1.0000 0.000
O301 O 0.547462 0.740819 0.957052 1.0000 0.000
O303 O 0.548657 0.260338 0.043265 1.0000 0.000
O305 O 0.649027 0.797400 0.946783 1.0000 0.000
O307 O 0.649759 0.201834 0.052847 1.0000 0.000
O309 O 0.748209 0.734028 0.958026 1.0000 0.000
O311 O 0.749451 0.265876 0.042196 1.0000 0.000
O313 O 0.849830 0.793715 0.945374 1.0000 0.000
O315 O 0.850392 0.195534 0.052701 1.0000 0.000
O317 O 0.949943 0.747453 0.951719 1.0000 0.000
O319 O 0.949829 0.276288 0.049526 1.0000 0.000
O321 O 0.049401 0.707581 0.349888 1.0000 0.000
O323 O 0.048913 0.305395 0.649220 1.0000 0.000
O325 O 0.151470 0.806603 0.346113 1.0000 0.000
O327 O 0.148408 0.191383 0.651308 1.0000 0.000
O329 O 0.251421 0.705077 0.352685 1.0000 0.000
O331 O 0.249475 0.289641 0.639762 1.0000 0.000
O333 O 0.350671 0.807450 0.349781 1.0000 0.000
O335 O 0.351083 0.196932 0.653372 1.0000 0.000
O337 O 0.451466 0.718193 0.352596 1.0000 0.000
O339 O 0.450434 0.291987 0.654094 1.0000 0.000
O341 O 0.551011 0.802442 0.349672 1.0000 0.000
O343 O 0.551022 0.192061 0.646480 1.0000 0.000
O345 O 0.651286 0.723613 0.346886 1.0000 0.000
O347 O 0.650134 0.294330 0.654167 1.0000 0.000
O349 O 0.750239 0.810234 0.352486 1.0000 0.000
O351 O 0.749044 0.195994 0.646779 1.0000 0.000
O353 O 0.850487 0.727287 0.341946 1.0000 0.000
O355 O 0.849629 0.283816 0.660079 1.0000 0.000
O357 O 0.949660 0.803519 0.350868 1.0000 0.000
O359 O 0.949274 0.193287 0.647949 1.0000 0.000
O361 O 0.049076 0.793029 0.449203 1.0000 0.000
O363 O 0.048352 0.206363 0.549988 1.0000 0.000
O365 O 0.149593 0.750344 0.450890 1.0000 0.000
O367 O 0.148605 0.252494 0.546095 1.0000 0.000
O369 O 0.249147 0.795086 0.446876 1.0000 0.000
O371 O 0.249860 0.202365 0.554626 1.0000 0.000
O373 O 0.350638 0.746943 0.451957 1.0000 0.000
O375 O 0.351358 0.273210 0.546039 1.0000 0.000
O377 O 0.451732 0.789065 0.447425 1.0000 0.000
O379 O 0.450845 0.202453 0.549152 1.0000 0.000
O381 O 0.550997 0.725410 0.456378 1.0000 0.000
O383 O 0.551218 0.248988 0.545715 1.0000 0.000
O385 O 0.650144 0.795993 0.450530 1.0000 0.000
O387 O 0.650992 0.202931 0.548068 1.0000 0.000
O389 O 0.749581 0.742003 0.446047 1.0000 0.000
O391 O 0.749755 0.276634 0.559804 1.0000 0.000
O393 O 0.848760 0.793732 0.450976 1.0000 0.000
O395 O 0.848724 0.200059 0.547917 1.0000 0.000
O397 O 0.950026 0.748476 0.446160 1.0000 0.000
O399 O 0.948709 0.273964 0.554367 1.0000 0.000
O401 O 0.001000 0.802353 0.800650 1.0000 0.000
O403 O 0.999388 0.198014 0.199673 1.0000 0.000
O405 O 0.104876 0.729088 0.798114 1.0000 0.000
O407 O 0.104702 0.259895 0.200113 1.0000 0.000
O409 O 0.196405 0.790884 0.799270 1.0000 0.000
O411 O 0.196336 0.208380 0.200017 1.0000 0.000
O413 O 0.302370 0.798075 0.799690 1.0000 0.000
O415 O 0.308064 0.223793 0.199287 1.0000 0.000
O417 O 0.399445 0.740001 0.799660 1.0000 0.000
O419 O 0.395093 0.287418 0.200565 1.0000 0.000
O421 O 0.499071 0.803985 0.800425 1.0000 0.000
O423 O 0.501955 0.191789 0.199608 1.0000 0.000
O425 O 0.605337 0.728046 0.799716 1.0000 0.000
O427 O 0.603710 0.264385 0.200657 1.0000 0.000
O429 O 0.696408 0.797061 0.798953 1.0000 0.000
O431 O 0.697625 0.207118 0.199801 1.0000 0.000
O433 O 0.804609 0.779949 0.800929 1.0000 0.000
O435 O 0.800895 0.214903 0.199807 1.0000 0.000
O437 O 0.890336 0.735882 0.800937 1.0000 0.000
O439 O 0.896806 0.261701 0.199245 1.0000 0.000
O441 O 0.999261 0.732219 0.899687 1.0000 0.000
O443 O 0.999428 0.272914 0.099654 1.0000 0.000
O445 O 0.097892 0.802290 0.898595 1.0000 0.000
O447 O 0.096461 0.197352 0.100006 1.0000 0.000
O449 O 0.207629 0.746841 0.900253 1.0000 0.000
O451 O 0.208373 0.252652 0.100207 1.0000 0.000
O453 O 0.292281 0.732523 0.901306 1.0000 0.000
O455 O 0.290727 0.264495 0.100195 1.0000 0.000
O457 O 0.400603 0.797156 0.900264 1.0000 0.000
O459 O 0.403200 0.195714 0.100489 1.0000 0.000
O461 O 0.497237 0.718449 0.900191 1.0000 0.000
O463 O 0.499747 0.271410 0.099509 1.0000 0.000
O465 O 0.597946 0.805614 0.900678 1.0000 0.000
O467 O 0.598070 0.195342 0.099638 1.0000 0.000
O469 O 0.708303 0.728497 0.898833 1.0000 0.000
O471 O 0.703356 0.249254 0.099827 1.0000 0.000
O473 O 0.790546 0.743030 0.901340 1.0000 0.000
O475 O 0.795901 0.246325 0.099858 1.0000 0.000
O477 O 0.902643 0.802921 0.899624 1.0000 0.000
O479 O 0.902223 0.196843 0.099437 1.0000 0.000
O481 O 0.000383 0.800476 0.999759 1.0000 0.000
O483 O 0.098730 0.733043 0.999625 1.0000 0.000
O485 O 0.196101 0.778286 0.000080 1.0000 0.000
O487 O 0.308126 0.773729 0.001872 1.0000 0.000
O489 O 0.394045 0.723327 0.000531 1.0000 0.000
O491 O 0.495729 0.811039 0.999606 1.0000 0.000
O493 O 0.603775 0.730472 0.999725 1.0000 0.000
O495 O 0.695468 0.807767 0.999617 1.0000 0.000
O497 O 0.803483 0.793971 0.000003 1.0000 0.000
O499 O 0.895018 0.728120 0.999554 1.0000 0.000
O501 O 0.001312 0.729310 0.299928 1.0000 0.000
O503 O 0.000300 0.263509 0.700412 1.0000 0.000
O505 O 0.097192 0.799829 0.300105 1.0000 0.000
O507 O 0.097559 0.200971 0.698906 1.0000 0.000
O509 O 0.209242 0.743186 0.299006 1.0000 0.000
O511 O 0.204670 0.252468 0.698445 1.0000 0.000
O513 O 0.294942 0.734140 0.299387 1.0000 0.000
O515 O 0.296657 0.250483 0.699063 1.0000 0.000
O517 O 0.402081 0.799936 0.300522 1.0000 0.000
O519 O 0.401427 0.196494 0.699475 1.0000 0.000
O521 O 0.500131 0.709891 0.301014 1.0000 0.000
O523 O 0.506385 0.262856 0.698775 1.0000 0.000
O525 O 0.599022 0.794407 0.301722 1.0000 0.000
O527 O 0.596601 0.205018 0.699666 1.0000 0.000
O529 O 0.704491 0.744739 0.299856 1.0000 0.000
O531 O 0.703299 0.291348 0.700365 1.0000 0.000
O533 O 0.795960 0.746381 0.299461 1.0000 0.000
O535 O 0.790794 0.258192 0.700598 1.0000 0.000
O537 O 0.902079 0.800181 0.299366 1.0000 0.000
O539 O 0.903978 0.201601 0.702118 1.0000 0.000
O541 O 0.999747 0.802228 0.399802 1.0000 0.000
O543 O 0.000458 0.196760 0.600414 1.0000 0.000
O545 O 0.105502 0.732257 0.398111 1.0000 0.000
O547 O 0.099352 0.268378 0.599271 1.0000 0.000
O549 O 0.196548 0.797979 0.399107 1.0000 0.000
O551 O 0.194948 0.195971 0.599445 1.0000 0.000
O553 O 0.302372 0.787168 0.400374 1.0000 0.000
O555 O 0.308401 0.239415 0.599868 1.0000 0.000
O557 O 0.400033 0.716362 0.400064 1.0000 0.000
O559 O 0.395326 0.278302 0.600103 1.0000 0.000
O561 O 0.502330 0.809421 0.400301 1.0000 0.000
O563 O 0.499066 0.201598 0.599374 1.0000 0.000
O565 O 0.600694 0.736862 0.400470 1.0000 0.000
O567 O 0.606439 0.281358 0.600529 1.0000 0.000
O569 O 0.697778 0.776656 0.399730 1.0000 0.000
O571 O 0.692662 0.229719 0.600824 1.0000 0.000
O573 O 0.801514 0.796146 0.400161 1.0000 0.000
O575 O 0.804151 0.199142 0.601304 1.0000 0.000
O577 O 0.899672 0.729103 0.400484 1.0000 0.000
O579 O 0.895851 0.259334 0.601195 1.0000 0.000
O581 O 0.999717 0.731378 0.499866 1.0000 0.000
O583 O 0.097625 0.806066 0.499383 1.0000 0.000
O585 O 0.204692 0.725804 0.500811 1.0000 0.000
O587 O 0.295415 0.779052 0.500240 1.0000 0.000
O589 O 0.402203 0.814063 0.499410 1.0000 0.000
O591 O 0.497688 0.704197 0.498968 1.0000 0.000
O593 O 0.602294 0.806344 0.500634 1.0000 0.000
O595 O 0.704061 0.769699 0.500286 1.0000 0.000
O597 O 0.796384 0.739853 0.500132 1.0000 0.000
O599 O 0.900051 0.802020 0.500086 1.0000 0.000
