#------------------------------------------------------------------------------
#$Date: 2016-03-21 01:21:50 +0200 (Mon, 21 Mar 2016) $
#$Revision: 178377 $
#$URL: svn://www.crystallography.net/cod/cif/4/00/13/4001306.cif $
#------------------------------------------------------------------------------
#
# This file is available in the Crystallography Open Database (COD),
# http://www.crystallography.net/
#
# All data on this site have been placed in the public domain by the
# contributors.
#
data_4001306
loop_
_publ_author_name
'Bernuy-Lopez, Carlos'
'Allix, Mathieu'
'Bridges, Craig A.'
'Claridge, John B.'
'Rosseinsky, Matthew J.'
_publ_section_title
;
 Sr2MgMoO6-\d:&#x00A0; Structure, Phase Stability, and Cation Site Order
 Control of Reduction
;
_journal_issue                   5
_journal_name_full               'Chemistry of Materials'
_journal_page_first              1035
_journal_paper_doi               10.1021/cm0624116
_journal_volume                  19
_journal_year                    2007
_chemical_formula_sum            'Mo O4 Sr'
_chemical_formula_weight         247.56
_chemical_name_systematic        ' ?'
_space_group_IT_number           88
_symmetry_cell_setting           tetragonal
_symmetry_space_group_name_Hall  '-I 4ad'
_symmetry_space_group_name_H-M   'I 41/a :2'
_cell_angle_alpha                90.0
_cell_angle_beta                 90.0
_cell_angle_gamma                90.0
_cell_formula_units_Z            4
_cell_length_a                   5.4113(15)
_cell_length_b                   5.4113
_cell_length_c                   12.056(6)
_cell_volume                     353.0(2)
_pd_block_id                     2006-08-22T13:30|FINAL_POL_XRAY_phase2|jbc||
_pd_phase_name
'from C:/Carlos/Sr2MgMoO6/XRAY_oxidised/I1BAR_NEUTRON_BS_FINAL_REFI'
_cod_data_source_file            cm0624116si20061009_082026.cif
_cod_data_source_block           FINAL_POL_XRAY_phase_2
_cod_depositor_comments
;
The following automatic conversions were performed:

'_geom_bond_publ_flag' value 'N' changed to 'n' according to
/home/saulius/struct/CIF-dictionaries/cif_core.dic dictionary named
'cif_core.dic' version 2.4.1 from 2010-06-29 (27
times).

'_geom_angle_publ_flag' value 'N' changed to 'n' according
to /home/saulius/struct/CIF-dictionaries/cif_core.dic dictionary
named 'cif_core.dic' version 2.4.1 from 2010-06-29 (75 times).

Automatic conversion script
Id: cif_fix_values 1715 2011-07-08 13:25:40Z adriana 
;
_cod_original_cell_volume        353.03(16)
_cod_original_sg_symbol_H-M      'I 41/a'
_cod_database_code               4001306
loop_
_symmetry_equiv_pos_site_id
_symmetry_equiv_pos_as_xyz
1 +x,+y,+z
2 -y+3/4,+x+1/4,+z+1/4
3 -x+1/2,-y,+z+1/2
4 +y+3/4,-x+3/4,+z+3/4
-1 -x,-y,-z
-2 +y+1/4,-x+3/4,-z+3/4
-3 +x+1/2,+y,-z+1/2
-4 -y+1/4,+x+1/4,-z+1/4
101 +x+1/2,+y+1/2,+z+1/2
102 -y+1/4,+x+3/4,+z+3/4
103 -x,-y+1/2,+z
104 +y+1/4,-x+1/4,+z+1/4
-101 -x+1/2,-y+1/2,-z+1/2
-102 +y+3/4,-x+1/4,-z+1/4
-103 +x,+y+1/2,-z
-104 -y+3/4,+x+3/4,-z+3/4
loop_
_atom_site_type_symbol
_atom_site_label
_atom_site_fract_x
_atom_site_fract_y
_atom_site_fract_z
_atom_site_occupancy
_atom_site_thermal_displace_type
_atom_site_U_iso_or_equiv
_atom_site_symmetry_multiplicity
Sr Sr1 0.0 0.25 0.625 1.0 Uiso 0.01274 4
Mo Mo1 0.0 0.25 0.125 1.0 Uiso 0.01274 4
O O1 0.2373 0.1146 0.0433 1.0 Uiso 0.01274 16
loop_
_atom_type_symbol
_atom_type_number_in_cell
Sr 4.0
Mo 4.0
O 16.0
loop_
_geom_angle_atom_site_label_1
_geom_angle_atom_site_label_2
_geom_angle_atom_site_label_3
_geom_angle
_geom_angle_site_symmetry_1
_geom_angle_site_symmetry_3
_geom_angle_publ_flag
Sr1 Sr1 Sr1 83.826(34) 2_455 2_555 n
Sr1 Sr1 Sr1 123.626(20) 2_455 4_444 n
Sr1 Sr1 Sr1 123.626(20) 2_455 4_454 n
Sr1 Sr1 O1 129.890(5) 2_455 3_555 n
Sr1 Sr1 O1 39.295(14) 2_455 4_455 n
Sr1 Sr1 O1 102.882(25) 2_455 -2_555 n
Sr1 Sr1 O1 102.527(32) 2_455 -3_445 n
Sr1 Sr1 O1 85.265(21) 2_455 101_455 n
Sr1 Sr1 O1 66.734(26) 2_455 102_334 n
Sr1 Sr1 O1 162.176(6) 2_455 -101_444 n
Sr1 Sr1 O1 38.5825(8) 2_455 -104_445 n
Sr1 Sr1 Sr1 123.626(20) 2_555 4_444 n
Sr1 Sr1 Sr1 123.626(20) 2_555 4_454 n
Sr1 Sr1 O1 85.265(21) 2_555 3_555 n
Sr1 Sr1 O1 66.734(26) 2_555 4_455 n
Sr1 Sr1 O1 38.5825(8) 2_555 -2_555 n
Sr1 Sr1 O1 162.176(6) 2_555 -3_445 n
Sr1 Sr1 O1 129.890(5) 2_555 101_455 n
Sr1 Sr1 O1 39.295(14) 2_555 102_334 n
Sr1 Sr1 O1 102.527(32) 2_555 -101_444 n
Sr1 Sr1 O1 102.882(25) 2_555 -104_445 n
Sr1 Sr1 Sr1 83.826(34) 4_444 4_454 n
Sr1 Sr1 O1 38.5825(8) 4_444 3_555 n
Sr1 Sr1 O1 162.176(6) 4_444 4_455 n
Sr1 Sr1 O1 129.890(5) 4_444 -2_555 n
Sr1 Sr1 O1 39.295(14) 4_444 -3_445 n
Sr1 Sr1 O1 102.882(25) 4_444 101_455 n
Sr1 Sr1 O1 102.527(32) 4_444 102_334 n
Sr1 Sr1 O1 66.734(26) 4_444 -101_444 n
Sr1 Sr1 O1 85.265(21) 4_444 -104_445 n
Sr1 Sr1 O1 102.882(25) 4_454 3_555 n
Sr1 Sr1 O1 102.527(32) 4_454 4_455 n
Sr1 Sr1 O1 85.265(21) 4_454 -2_555 n
Sr1 Sr1 O1 66.734(26) 4_454 -3_445 n
Sr1 Sr1 O1 38.5825(8) 4_454 101_455 n
Sr1 Sr1 O1 162.176(6) 4_454 102_334 n
Sr1 Sr1 O1 39.295(14) 4_454 -101_444 n
Sr1 Sr1 O1 129.890(5) 4_454 -104_445 n
O1 Sr1 O1 149.573(4) 3_555 4_455 n
O1 Sr1 O1 98.103(8) 3_555 -2_555 n
O1 Sr1 O1 77.878(15) 3_555 -3_445 n
O1 Sr1 O1 135.898(23) 3_555 101_455 n
O1 Sr1 O1 74.183(28) 3_555 102_334 n
O1 Sr1 O1 67.684(11) 3_555 -101_444 n
O1 Sr1 O1 98.103(8) 3_555 -104_445 n
O1 Sr1 O1 67.684(11) 4_455 -2_555 n
O1 Sr1 O1 128.085(20) 4_455 -3_445 n
O1 Sr1 O1 74.183(28) 4_455 101_455 n
O1 Sr1 O1 76.488(33) 4_455 102_334 n
O1 Sr1 O1 128.085(20) 4_455 -101_444 n
O1 Sr1 O1 77.878(15) 4_455 -104_445 n
O1 Sr1 O1 149.573(4) -2_555 -3_445 n
O1 Sr1 O1 98.103(8) -2_555 101_455 n
O1 Sr1 O1 77.878(15) -2_555 102_334 n
O1 Sr1 O1 74.183(28) -2_555 -101_444 n
O1 Sr1 O1 135.898(23) -2_555 -104_445 n
O1 Sr1 O1 67.684(11) -3_445 101_455 n
O1 Sr1 O1 128.085(20) -3_445 102_334 n
O1 Sr1 O1 76.488(33) -3_445 -101_444 n
O1 Sr1 O1 74.183(28) -3_445 -104_445 n
O1 Sr1 O1 149.573(4) 101_455 102_334 n
O1 Sr1 O1 77.878(15) 101_455 -101_444 n
O1 Sr1 O1 98.103(8) 101_455 -104_445 n
O1 Sr1 O1 128.085(20) 102_334 -101_444 n
O1 Sr1 O1 67.684(11) 102_334 -104_445 n
O1 Sr1 O1 149.573(4) -101_444 -104_445 n
O1 Mo1 O1 107.904(15) 1_555 -4_555 n
O1 Mo1 O1 112.653(31) 1_555 103_343 n
O1 Mo1 O1 107.904(15) 1_555 -102_444 n
O1 Mo1 O1 107.904(15) -4_555 103_343 n
O1 Mo1 O1 112.653(31) -4_555 -102_444 n
O1 Mo1 O1 107.904(15) 103_343 -102_444 n
Sr1 O1 Sr1 102.122(15) 2_554 3_554 n
Sr1 O1 Mo1 135.743(10) 2_554 1_555 n
Sr1 O1 Mo1 119.579(25) 3_554 1_555 n
loop_
_geom_bond_atom_site_label_1
_geom_bond_atom_site_label_2
_geom_bond_distance
_geom_bond_site_symmetry_2
_geom_bond_publ_flag
Sr1 Sr1 4.0503(13) 2_455 n
Sr1 Sr1 4.0503(13) 2_555 n
Sr1 Sr1 4.0503(13) 4_444 n
Sr1 Sr1 4.0503(13) 4_454 n
Sr1 Mo1 3.8263(10) 3_455 n
Sr1 Mo1 3.8263(10) 3_465 n
Sr1 Mo1 3.8263(10) 3_555 n
Sr1 Mo1 3.8263(10) 3_565 n
Sr1 O1 2.6236(6) 3_555 n
Sr1 O1 2.5835(9) 4_455 n
Sr1 O1 2.6236(6) -2_555 n
Sr1 O1 2.5835(9) -3_455 n
Sr1 O1 2.6236(6) 101_455 n
Sr1 O1 2.5835(9) 102_545 n
Sr1 O1 2.5835(9) -101_444 n
Sr1 O1 2.6236(6) -104_334 n
Mo1 Sr1 3.8263(10) 3_454 n
Mo1 Sr1 3.8263(10) 3_464 n
Mo1 Sr1 3.8263(10) 3_554 n
Mo1 Sr1 3.8263(10) 3_564 n
Mo1 O1 1.7765(4) 1_555 n
Mo1 O1 1.7765(4) -4_555 n
Mo1 O1 1.7765(4) 103_555 n
Mo1 O1 1.7765(4) -102_344 n
O1 Sr1 2.5835(9) 2_554 n
O1 Sr1 2.6236(6) 3_554 n
O1 Mo1 1.7765(4) 1_555 n
loop_
_pd_block_diffractogram_id
2006-08-22T13:30|FINAL_POL_XRAY_H_01|jbc|panalytical
