#------------------------------------------------------------------------------
#$Date: 2016-03-21 01:21:50 +0200 (Mon, 21 Mar 2016) $
#$Revision: 178377 $
#$URL: svn://www.crystallography.net/cod/cif/4/00/17/4001711.cif $
#------------------------------------------------------------------------------
#
# This file is available in the Crystallography Open Database (COD),
# http://www.crystallography.net/
#
# All data on this site have been placed in the public domain by the
# contributors.
#
data_4001711
loop_
_publ_author_name
'Fukuda, Koichiro'
'Asaka, Toru'
'Oyabu, Masayuki'
'Urushihara, Daisuke'
'Berghout, Abid'
'B\'echade, Emilie'
'Masson, Olivier'
'Julien, Isabelle'
'Thomas, Philippe'
_publ_section_title
;
 Crystal Structure and Oxide-Ion Conductivity alongc-Axis of Apatite-Type
 Lanthanum Silicate with Excess Oxide Ions
;
_journal_issue                   23
_journal_name_full               'Chemistry of Materials'
_journal_page_first              4623
_journal_paper_doi               10.1021/cm3034643
_journal_volume                  24
_journal_year                    2012
_chemical_formula_moiety         'La9.33 O26 Si6'
_chemical_formula_sum            'La9.33 O26 Si6'
_chemical_formula_weight         1880.5
_space_group_IT_number           176
_symmetry_cell_setting           hexagonal
_symmetry_Int_Tables_number      176
_symmetry_space_group_name_Hall  '-P 6c'
_symmetry_space_group_name_H-M   'P 63/m'
_cell_angle_alpha                90
_cell_angle_beta                 90
_cell_angle_gamma                120
_cell_formula_units_Z            1
_cell_length_a                   9.72100(10)
_cell_length_b                   9.72100(10)
_cell_length_c                   7.18670(10)
_cell_measurement_reflns_used    19189
_cell_measurement_temperature    293
_cell_measurement_theta_max      46.08
_cell_measurement_theta_min      2.41
_cell_volume                     588.142(12)
_diffrn_ambient_temperature      293
_diffrn_measured_fraction_theta_full 0.99
_diffrn_measured_fraction_theta_max 0.99
_diffrn_measurement_device_type  'Bruker APEXII CCD'
_diffrn_measurement_method       '\f and \w'
_diffrn_radiation_source         'Turbo X-ray Source'
_diffrn_radiation_type           'Mo K\a'
_diffrn_radiation_wavelength     0.71073
_diffrn_reflns_av_R_equivalents  0.0194
_diffrn_reflns_av_sigmaI/netI    0.0128
_diffrn_reflns_limit_h_max       19
_diffrn_reflns_limit_h_min       -9
_diffrn_reflns_limit_k_max       9
_diffrn_reflns_limit_k_min       -19
_diffrn_reflns_limit_l_max       14
_diffrn_reflns_limit_l_min       -8
_diffrn_reflns_number            6605
_diffrn_reflns_theta_full        46.1
_diffrn_reflns_theta_max         46.1
_diffrn_reflns_theta_min         3.73
_exptl_absorpt_coefficient_mu    16.958
_exptl_absorpt_correction_T_max  0.844
_exptl_absorpt_correction_T_min  0.607
_exptl_absorpt_correction_type   multi-scan
_exptl_absorpt_process_details   '(SADABS; Sheldrick, 1996)'
_exptl_crystal_colour            colourless
_exptl_crystal_density_diffrn    5.3076
_exptl_crystal_description       prism
_exptl_crystal_F_000             822.1
_exptl_crystal_size_max          0.075
_exptl_crystal_size_mid          0.025
_exptl_crystal_size_min          0.010
_refine_diff_density_max         0.57
_refine_diff_density_min         -0.97
_refine_ls_extinction_coef       590(50)
_refine_ls_extinction_method
'B-C type 1 Gaussian isotropic (Becker & Coppens, 1974)'
_refine_ls_goodness_of_fit_gt    1.26
_refine_ls_goodness_of_fit_ref   1.24
_refine_ls_number_constraints    1
_refine_ls_number_parameters     74
_refine_ls_number_reflns         1791
_refine_ls_number_restraints     0
_refine_ls_R_factor_all          0.0145
_refine_ls_R_factor_gt           0.0126
_refine_ls_shift/su_max          0.0156
_refine_ls_shift/su_mean         0.0047
_refine_ls_structure_factor_coef F
_refine_ls_weighting_details     w=1/(\s^2^(F)+0.0001F^2^)
_refine_ls_weighting_scheme      sigma
_refine_ls_wR_factor_gt          0.0186
_refine_ls_wR_factor_ref         0.0192
_reflns_number_gt                1644
_reflns_number_total             1791
_reflns_threshold_expression     I>3\s(I)
_cod_data_source_file            cm3034643_si_002.cif
_cod_data_source_block           I
_cod_database_code               4001711
#BEGIN Tags that were not found in dictionaries:
_atom_site_anharm_details
;
The atomic anharmonic pdf is approximated by a Gram-Charlier expansion
about the harmonic pdf, according to the expression :

      P(u) = (1 + Cijk*Hijk/3! + Dijkl*Hijkl/4!)*P(0)

The coefficients Cijk and Dijkl are refined in the least squares procedure.
The reported coefficients Cijk are multiplied by 1000 and Dijkl by 10000.
;
#END Tags that were not found in dictionaries
loop_
_symmetry_equiv_pos_site_id
_symmetry_equiv_pos_as_xyz
1 x,y,z
2 -y,x-y,z
3 -x+y,-x,z
4 -x,-y,z+1/2
5 y,-x+y,z+1/2
6 x-y,x,z+1/2
7 -x,-y,-z
8 y,-x+y,-z
9 x-y,x,-z
10 x,y,-z+1/2
11 -y,x-y,-z+1/2
12 -x+y,-x,-z+1/2
loop_
_atom_site_label
_atom_site_type_symbol
_atom_site_fract_x
_atom_site_fract_y
_atom_site_fract_z
_atom_site_adp_type
_atom_site_U_iso_or_equiv
_atom_site_symmetry_multiplicity
_atom_site_occupancy
_atom_site_calc_flag
La1 La 0.333333 0.666667 -0.00080(4) Uani 0.01533(12) 4 0.8520(10) d
La2 La 0.22877(3) 0.24164(2) 0.25 Uani 0.01017(11) 6 0.9876(7) d
Si Si 0.40187(5) 0.02994(5) 0.25 Uani 0.00809(11) 6 1 d
O1 O 0.59465(14) 0.12217(14) 0.25 Uani 0.0157(4) 6 1 d
O2 O 0.16127(16) 0.48600(18) 0.25 Uani 0.0194(4) 6 1 d
O3a O 0.3076(6) 0.0615(5) 0.0864(7) Uani 0.0145(15) 12 0.2594 d
O3b O 0.3550(2) 0.0978(2) 0.0654(2) Uani 0.0150(5) 12 0.7406 d
O4 O 0 0 0.25 Uani 0.0377(10) 2 1 d
loop_
_atom_site_aniso_label
_atom_site_aniso_type_symbol
_atom_site_aniso_U_11
_atom_site_aniso_U_22
_atom_site_aniso_U_33
_atom_site_aniso_U_12
_atom_site_aniso_U_13
_atom_site_aniso_U_23
La1 La 0.00934(15) 0.00934(15) 0.0273(2) 0.00467(7) 0 0
La2 La 0.01132(14) 0.01072(14) 0.01042(13) 0.00696(9) 0 0
Si Si 0.00891(14) 0.00734(14) 0.00781(12) 0.00391(11) 0 0
O1 O 0.0105(4) 0.0152(5) 0.0227(5) 0.0074(4) 0 0
O2 O 0.0104(4) 0.0246(6) 0.0172(4) 0.0042(4) 0 0
O3a O 0.022(2) 0.0134(17) 0.0126(14) 0.0123(15) -0.0083(14) -0.0054(12)
O3b O 0.0221(7) 0.0150(6) 0.0095(4) 0.0105(5) -0.0051(5) -0.0014(4)
O4 O 0.0165(7) 0.0165(7) 0.080(3) 0.0082(3) 0 0
loop_
_atom_type_symbol
_atom_type_scat_dispersion_real
_atom_type_scat_dispersion_imag
_atom_type_scat_source
_atom_type_scat_Cromer_Mann_a1
_atom_type_scat_Cromer_Mann_b1
_atom_type_scat_Cromer_Mann_a2
_atom_type_scat_Cromer_Mann_b2
_atom_type_scat_Cromer_Mann_a3
_atom_type_scat_Cromer_Mann_b3
_atom_type_scat_Cromer_Mann_a4
_atom_type_scat_Cromer_Mann_b4
_atom_type_scat_Cromer_Mann_c
La -0.2871 2.4523 'International Tables Vol C tables 4.2.6.8 and 6.1.1.4'
20.577999 2.94817 19.599001 0.244475 11.3727 18.7726 3.28719 133.123993 2.14678
O 0.0106 0.0060 'International Tables Vol C tables 4.2.6.8 and 6.1.1.4' 3.0485
13.2771 2.2868 5.7011 1.5463 0.3239 0.867 32.908901 0.2508
Si 0.0817 0.0704 'International Tables Vol C tables 4.2.6.8 and 6.1.1.4' 6.2915
2.4386 3.0353 32.333698 1.9891 0.6785 1.541 81.693703 1.1407
loop_
_geom_angle_atom_site_label_1
_geom_angle_atom_site_label_2
_geom_angle_atom_site_label_3
_geom_angle_site_symmetry_1
_geom_angle_site_symmetry_3
_geom_angle
O1 La1 O1 4_664 5_564 75.93(4)
O1 La1 O1 4_664 6_554 75.93(4)
O1 La1 O2 4_664 . 153.61(6)
O1 La1 O2 4_664 2_665 125.30(4)
O1 La1 O2 4_664 3_565 93.19(4)
O1 La1 O3a 4_664 7_665 56.92(11)
O1 La1 O3a 4_664 8_565 65.36(9)
O1 La1 O3a 4_664 9_555 123.95(9)
O1 La1 O3b 4_664 7_665 58.01(5)
O1 La1 O3b 4_664 8_565 66.28(5)
O1 La1 O3b 4_664 9_555 125.35(4)
O1 La1 O1 5_564 6_554 75.93(5)
O1 La1 O2 5_564 . 93.19(3)
O1 La1 O2 5_564 2_665 153.61(7)
O1 La1 O2 5_564 3_565 125.30(7)
O1 La1 O3a 5_564 7_665 123.95(9)
O1 La1 O3a 5_564 8_565 56.92(11)
O1 La1 O3a 5_564 9_555 65.36(13)
O1 La1 O3b 5_564 7_665 125.35(4)
O1 La1 O3b 5_564 8_565 58.01(6)
O1 La1 O3b 5_564 9_555 66.28(7)
O1 La1 O2 6_554 . 125.30(5)
O1 La1 O2 6_554 2_665 93.19(5)
O1 La1 O2 6_554 3_565 153.61(5)
O1 La1 O3a 6_554 7_665 65.36(10)
O1 La1 O3a 6_554 8_565 123.95(10)
O1 La1 O3a 6_554 9_555 56.92(11)
O1 La1 O3b 6_554 7_665 66.28(5)
O1 La1 O3b 6_554 8_565 125.35(5)
O1 La1 O3b 6_554 9_555 58.01(5)
O2 La1 O2 . 2_665 73.33(4)
O2 La1 O2 . 3_565 73.33(4)
O2 La1 O3a . 7_665 142.14(9)
O2 La1 O3a . 8_565 88.49(10)
O2 La1 O3a . 9_555 69.68(10)
O2 La1 O3b . 7_665 140.78(4)
O2 La1 O3b . 8_565 87.51(6)
O2 La1 O3b . 9_555 68.43(5)
O2 La1 O2 2_665 3_565 73.33(7)
O2 La1 O3a 2_665 7_665 69.68(10)
O2 La1 O3a 2_665 8_565 142.14(11)
O2 La1 O3a 2_665 9_555 88.49(13)
O2 La1 O3b 2_665 7_665 68.43(5)
O2 La1 O3b 2_665 8_565 140.78(6)
O2 La1 O3b 2_665 9_555 87.51(7)
O2 La1 O3a 3_565 7_665 88.49(11)
O2 La1 O3a 3_565 8_565 69.68(11)
O2 La1 O3a 3_565 9_555 142.14(9)
O2 La1 O3b 3_565 7_665 87.51(6)
O2 La1 O3b 3_565 8_565 68.43(6)
O2 La1 O3b 3_565 9_555 140.78(4)
O3a La1 O3a 7_665 8_565 116.43(15)
O3a La1 O3a 7_665 9_555 116.43(17)
O3a La1 O3b 7_665 7_665 1.40(9)
O3a La1 O3b 7_665 8_565 116.78(12)
O3a La1 O3b 7_665 9_555 116.94(13)
O3a La1 O3a 8_565 9_555 116.43(17)
O3a La1 O3b 8_565 7_665 116.94(11)
O3a La1 O3b 8_565 8_565 1.40(10)
O3a La1 O3b 8_565 9_555 116.78(12)
O3a La1 O3b 9_555 7_665 116.78(14)
O3a La1 O3b 9_555 8_565 116.94(14)
O3a La1 O3b 9_555 9_555 1.40(9)
O3b La1 O3b 7_665 8_565 117.26(6)
O3b La1 O3b 7_665 9_555 117.26(7)
O3b La1 O3b 8_565 9_555 117.26(7)
O1 La2 O2 3_665 . 98.70(5)
O1 La2 O3a 3_665 . 77.56(11)
O1 La2 O3a 3_665 2_555 140.07(11)
O1 La2 O3a 3_665 6_555 85.93(15)
O1 La2 O3a 3_665 9_555 85.93(15)
O1 La2 O3a 3_665 10_555 77.56(11)
O1 La2 O3a 3_665 11_555 140.07(11)
O1 La2 O3b 3_665 . 68.87(5)
O1 La2 O3b 3_665 2_555 138.95(5)
O1 La2 O3b 3_665 6_555 83.23(6)
O1 La2 O3b 3_665 9_555 83.23(6)
O1 La2 O3b 3_665 10_555 68.87(5)
O1 La2 O3b 3_665 11_555 138.95(5)
O1 La2 O4 3_665 . 150.46(4)
O2 La2 O3a . . 151.77(12)
O2 La2 O3a . 2_555 51.26(13)
O2 La2 O3a . 6_555 78.04(18)
O2 La2 O3a . 9_555 78.04(18)
O2 La2 O3a . 10_555 151.77(12)
O2 La2 O3a . 11_555 51.26(13)
O2 La2 O3b . . 146.15(4)
O2 La2 O3b . 2_555 49.82(5)
O2 La2 O3b . 6_555 68.83(6)
O2 La2 O3b . 9_555 68.83(6)
O2 La2 O3b . 10_555 146.15(4)
O2 La2 O3b . 11_555 49.82(5)
O2 La2 O4 . . 110.84(3)
O3a La2 O3a . 2_555 115.46(17)
O3a La2 O3a . 6_555 128.8(2)
O3a La2 O3a . 9_555 73.8(2)
O3a La2 O3a . 10_555 55.51(17)
O3a La2 O3a . 11_555 141.80(15)
O3a La2 O3b . . 9.57(10)
O3a La2 O3b . 2_555 116.61(12)
O3a La2 O3b . 6_555 136.91(14)
O3a La2 O3b . 9_555 82.94(13)
O3a La2 O3b . 10_555 58.87(13)
O3a La2 O3b . 11_555 143.09(10)
O3a La2 O4 . . 76.37(9)
O3a La2 O3a 2_555 6_555 108.2(2)
O3a La2 O3a 2_555 9_555 64.5(2)
O3a La2 O3a 2_555 10_555 141.80(15)
O3a La2 O3a 2_555 11_555 44.94(13)
O3a La2 O3b 2_555 . 119.26(12)
O3a La2 O3b 2_555 2_555 1.46(14)
O3a La2 O3b 2_555 6_555 104.05(13)
O3a La2 O3b 2_555 9_555 62.78(11)
O3a La2 O3b 2_555 10_555 150.91(12)
O3a La2 O3b 2_555 11_555 44.68(10)
O3a La2 O4 2_555 . 65.62(12)
O3a La2 O3a 6_555 9_555 153.22(19)
O3a La2 O3a 6_555 10_555 73.8(2)
O3a La2 O3a 6_555 11_555 64.5(2)
O3a La2 O3b 6_555 . 129.6(2)
O3a La2 O3b 6_555 2_555 107.6(2)
O3a La2 O3b 6_555 6_555 10.26(15)
O3a La2 O3b 6_555 9_555 142.96(15)
O3a La2 O3b 6_555 10_555 69.97(19)
O3a La2 O3b 6_555 11_555 64.39(19)
O3a La2 O4 6_555 . 99.81(11)
O3a La2 O3a 9_555 10_555 128.8(2)
O3a La2 O3a 9_555 11_555 108.2(2)
O3a La2 O3b 9_555 . 69.97(19)
O3a La2 O3b 9_555 2_555 64.39(19)
O3a La2 O3b 9_555 6_555 142.96(15)
O3a La2 O3b 9_555 9_555 10.26(15)
O3a La2 O3b 9_555 10_555 129.6(2)
O3a La2 O3b 9_555 11_555 107.6(2)
O3a La2 O4 9_555 . 99.81(11)
O3a La2 O3a 10_555 11_555 115.46(17)
O3a La2 O3b 10_555 . 58.87(13)
O3a La2 O3b 10_555 2_555 143.09(10)
O3a La2 O3b 10_555 6_555 82.94(13)
O3a La2 O3b 10_555 9_555 136.91(14)
O3a La2 O3b 10_555 10_555 9.57(10)
O3a La2 O3b 10_555 11_555 116.61(12)
O3a La2 O4 10_555 . 76.37(9)
O3a La2 O3b 11_555 . 150.91(12)
O3a La2 O3b 11_555 2_555 44.68(10)
O3a La2 O3b 11_555 6_555 62.78(11)
O3a La2 O3b 11_555 9_555 104.05(13)
O3a La2 O3b 11_555 10_555 119.26(12)
O3a La2 O3b 11_555 11_555 1.46(14)
O3a La2 O4 11_555 . 65.62(12)
O3b La2 O3b . 2_555 120.23(5)
O3b La2 O3b . 6_555 136.05(8)
O3b La2 O3b . 9_555 78.29(8)
O3b La2 O3b . 10_555 60.49(6)
O3b La2 O3b . 11_555 152.12(5)
O3b La2 O4 . . 85.79(3)
O3b La2 O3b 2_555 6_555 103.22(8)
O3b La2 O3b 2_555 9_555 62.42(7)
O3b La2 O3b 2_555 10_555 152.12(5)
O3b La2 O3b 2_555 11_555 44.37(4)
O3b La2 O4 2_555 . 66.97(4)
O3b La2 O3b 6_555 9_555 132.70(7)
O3b La2 O3b 6_555 10_555 78.29(8)
O3b La2 O3b 6_555 11_555 62.42(7)
O3b La2 O4 6_555 . 106.95(4)
O3b La2 O3b 9_555 10_555 136.05(8)
O3b La2 O3b 9_555 11_555 103.22(8)
O3b La2 O4 9_555 . 106.95(4)
O3b La2 O3b 10_555 11_555 120.23(5)
O3b La2 O4 10_555 . 85.79(3)
O3b La2 O4 11_555 . 66.97(4)
O1 Si O2 . 3_555 112.20(11)
O1 Si O3a . . 120.28(16)
O1 Si O3a . 10_555 120.28(16)
O1 Si O3b . . 104.69(7)
O1 Si O3b . 10_555 104.69(7)
O2 Si O3a 3_555 . 103.73(17)
O2 Si O3a 3_555 10_555 103.73(17)
O2 Si O3b 3_555 . 113.48(7)
O2 Si O3b 3_555 10_555 113.48(7)
O3a Si O3a . 10_555 93.7(3)
O3a Si O3b . . 15.62(16)
O3a Si O3b . 10_555 102.4(2)
O3a Si O3b 10_555 . 102.4(2)
O3a Si O3b 10_555 10_555 15.62(16)
O3b Si O3b . 10_555 107.55(11)
loop_
_geom_bond_atom_site_label_1
_geom_bond_atom_site_label_2
_geom_bond_site_symmetry_2
_geom_bond_distance
La1 O1 4_664 2.5445(10)
La1 O1 5_564 2.5445(8)
La1 O1 6_554 2.5445(15)
La1 O2 . 2.4886(8)
La1 O2 2_665 2.4886(14)
La1 O2 3_565 2.4886(14)
La1 O3a 7_665 3.213(4)
La1 O3a 8_565 3.213(7)
La1 O3a 9_555 3.213(6)
La1 O3b 7_665 2.7752(15)
La1 O3b 8_565 2.775(3)
La1 O3b 9_555 2.775(2)
La2 O1 3_665 2.5188(16)
La2 O2 . 2.763(2)
La2 O3a . 2.525(6)
La2 O3a 6_555 2.485(5)
La2 O3a 9_555 2.485(5)
La2 O3a 10_555 2.525(6)
La2 O3b . 2.633(2)
La2 O3b 6_555 2.4748(17)
La2 O3b 9_555 2.4748(17)
La2 O3b 10_555 2.633(2)
La2 O4 . 2.28900(16)
Si O1 . 1.6235(13)
Si O2 3_555 1.6197(15)
Si O3a . 1.612(6)
Si O3a 10_555 1.612(6)
Si O3b . 1.644(2)
Si O3b 10_555 1.644(2)
loop_
_refln_index_h
_refln_index_k
_refln_index_l
_refln_F_squared_calc
_refln_F_squared_meas
_refln_F_squared_sigma
_refln_observed_status
-1 2 0 2308.06 2427.23 46.90 o
-1 3 0 15896.30 16129.90 296.41 o
-2 4 0 2320.85 2308.58 45.15 o
-1 4 0 11058.80 11551.80 218.06 o
-4 5 0 36919.90 37422.10 413.93 o
-3 5 0 11141.90 11453.90 112.29 o
-2 5 0 11499.20 11435.00 126.32 o
-1 5 0 59871.70 57144.20 568.42 o
0 5 0 6532.56 6530.17 61.23 o
-5 6 0 10494.20 10459.40 95.44 o
-4 6 0 13430.50 13484.00 134.56 o
-3 6 0 948.52 961.19 15.80 o
-2 6 0 17130.40 17225.20 156.42 o
-1 6 0 1032.80 973.55 11.68 o
0 6 0 4191.24 4016.75 41.04 o
-6 7 0 21627.40 21543.70 197.91 o
-5 7 0 12225.90 11917.80 100.14 o
-4 7 0 3836.33 3947.94 35.59 o
-3 7 0 2927.50 3143.62 33.58 o
-2 7 0 1889.39 1825.09 21.96 o
-1 7 0 17460.80 16794.60 151.30 o
0 7 0 4680.28 4621.05 47.22 o
-7 8 0 2677.76 2715.66 31.56 o
-6 8 0 5153.00 5213.77 47.20 o
-5 8 0 4270.66 4301.55 39.71 o
-4 8 0 45880.20 45678.00 363.50 o
-3 8 0 188.02 185.07 6.88 o
-2 8 0 10945.80 10929.90 101.23 o
-1 8 0 26979.90 26136.50 242.88 o
0 8 0 9444.73 9114.48 87.22 o
-8 9 0 140.24 150.68 6.19 o
-7 9 0 12171.50 12400.20 115.54 o
-6 9 0 9705.44 9951.06 94.00 o
-5 9 0 9031.30 9138.69 87.24 o
-4 9 0 44.85 50.23 4.82 o
-3 9 0 306.22 305.44 8.94 o
-2 9 0 3013.55 3015.21 34.99 o
-1 9 0 5194.20 5244.08 54.78 o
0 9 0 26393.40 25889.20 235.60 o
-9 10 0 3089.35 3097.95 37.75 o
-8 10 0 1875.18 1876.14 26.11 o
-7 10 0 11680.30 11953.70 112.99 o
-6 10 0 431.49 433.35 13.07 o
-5 10 0 12122.50 12111.00 138.75 o
-4 10 0 8274.88 8236.00 80.56 o
-3 10 0 7263.92 7232.81 72.45 o
-2 10 0 6344.21 6439.77 66.37 o
-1 10 0 21.31 22.71 4.82 o
0 10 0 2228.92 2239.86 30.91 o
-10 11 0 24.32 35.78 5.50 o
-9 11 0 2536.09 2573.76 33.65 o
-8 11 0 1569.71 1564.82 28.86 o
-7 11 0 1787.46 1859.25 32.29 o
-6 11 0 6879.33 6826.60 84.82 o
-5 11 0 8275.07 8055.49 98.38 o
-4 11 0 4610.05 4568.97 62.37 o
-3 11 0 2559.33 2517.28 32.96 o
-2 11 0 8621.80 8591.72 86.09 o
-1 11 0 3442.01 3504.63 43.23 o
0 11 0 3817.44 3761.14 45.97 o
-11 12 0 2824.06 2898.38 46.69 o
-10 12 0 1211.10 1217.55 26.81 o
-9 12 0 21601.90 21622.40 241.44 o
-8 12 0 1275.61 1302.01 27.50 o
-7 12 0 6733.62 6756.34 86.92 o
-6 12 0 1573.98 1542.90 29.55 o
-5 12 0 103.50 122.48 9.63 o
-4 12 0 622.38 593.57 18.57 o
-3 12 0 1993.49 1980.79 36.41 o
-2 12 0 7018.76 7022.50 90.34 o
-1 12 0 197.09 209.16 10.32 o
0 12 0 10274.80 10382.70 127.68 o
-12 13 0 1554.88 1574.01 32.99 o
-11 13 0 1080.47 1092.57 26.13 o
-10 13 0 60.15 75.00 8.95 o
-9 13 0 6353.54 6299.47 83.55 o
-8 13 0 8211.99 8269.75 104.62 o
-7 13 0 5329.33 5274.15 72.64 o
-6 13 0 1093.38 1109.72 26.13 o
-5 13 0 22682.40 22398.60 252.16 o
-4 13 0 463.05 473.96 17.89 o
-3 13 0 2262.49 2310.25 41.90 o
-2 13 0 2426.68 2378.00 42.59 o
-1 13 0 4747.83 4626.44 94.63 o
0 13 0 1028.50 1067.17 37.82 o
-13 14 0 1027.37 988.79 37.13 o
-12 14 0 4562.89 4447.44 67.21 o
-11 14 0 2463.07 2394.46 43.27 o
-10 14 0 3636.67 3644.11 56.96 o
-9 14 0 721.62 715.28 21.32 o
-8 14 0 6554.38 6474.35 87.65 o
-7 14 0 346.96 359.11 15.82 o
-6 14 0 65.54 92.89 10.32 o
-5 14 0 1.32 3.44 6.88 <
-4 14 0 1271.29 1264.98 29.56 o
-3 14 0 3620.69 3541.23 56.96 o
-2 14 0 129.85 130.73 15.83 o
-1 14 0 9727.01 9484.74 170.79 o
0 14 0 1078.08 1005.25 38.50 o
-14 15 0 2012.74 2003.57 57.72 o
-13 15 0 524.61 474.63 26.83 o
-12 15 0 1408.63 1451.14 33.68 o
-11 15 0 1633.57 1620.66 35.05 o
-10 15 0 3018.03 3047.11 52.18 o
-9 15 0 832.56 812.88 24.07 o
-8 15 0 874.81 891.25 24.76 o
-7 15 0 3379.88 3384.69 55.60 o
-6 15 0 1032.55 1074.05 28.19 o
-5 15 0 2711.92 2637.81 48.07 o
-4 15 0 2693.42 2647.46 48.76 o
-3 15 0 358.57 371.49 23.39 o
-2 15 0 1505.14 1470.27 46.74 o
-1 15 0 1172.72 1168.11 41.94 o
0 15 0 187.94 172.01 19.95 o
-15 16 0 2132.91 2162.03 61.83 o
-14 16 0 2101.33 1974.55 58.40 o
-13 16 0 769.73 848.67 36.45 o
-12 16 0 0.82 2.06 7.57 <
-11 16 0 291.13 311.66 16.51 o
-10 16 0 928.34 937.97 26.82 o
-9 16 0 469.36 470.52 19.26 o
-8 16 0 4290.51 4416.73 68.59 o
-7 16 0 1818.57 1801.16 38.48 o
-6 16 0 1875.38 1901.41 39.86 o
-5 16 0 3722.28 3665.78 61.07 o
-4 16 0 168.36 154.12 18.58 o
-3 16 0 1508.77 1607.03 50.86 o
-2 16 0 119.71 128.67 17.89 o
-1 16 0 14.77 14.45 12.39 <
0 16 0 134.38 134.17 19.27 o
-16 17 0 754.75 843.85 37.83 o
-15 17 0 752.52 730.38 35.07 o
-14 17 0 596.76 583.96 31.64 o
-12 17 0 1145.15 1128.94 43.31 o
-11 17 0 1733.52 1721.52 38.49 o
-10 17 0 5777.93 5796.15 119.21 o
-9 17 0 1806.24 1906.98 41.23 o
-8 17 0 101.63 101.84 12.39 o
-7 17 0 305.73 305.46 17.20 o
-6 17 0 28.98 29.59 12.39 <
-5 17 0 1667.62 1724.35 53.61 o
-4 17 0 3576.20 3600.10 85.10 o
-3 17 0 2392.67 2349.11 65.25 o
-2 17 0 249.76 232.55 23.39 o
-1 17 0 6147.60 6476.03 131.49 o
0 17 0 163.01 134.17 19.27 o
-15 18 0 462.93 510.42 30.27 o
-14 18 0 133.29 151.38 19.95 o
-13 18 0 457.50 465.02 28.89 o
-12 18 0 126.92 134.17 19.27 o
-11 18 0 426.81 412.75 28.20 o
-10 18 0 95.83 90.14 12.39 o
-9 18 0 3201.61 3078.72 78.26 o
-8 18 0 1932.10 2012.57 60.47 o
-7 18 0 1309.23 1282.09 46.75 o
-6 18 0 5642.89 5820.31 120.59 o
-5 18 0 150.74 174.08 21.33 o
-4 18 0 499.42 479.45 29.58 o
-3 18 0 210.65 203.66 22.02 o
-13 19 0 1298.66 1300.65 48.12 o
-12 19 0 1137.27 1102.80 44.00 o
-9 19 0 968.59 1024.56 41.94 o
-8 19 0 75.26 83.95 17.20 o
-7 19 0 578.33 598.41 33.02 o
-6 19 0 568.92 589.47 33.02 o
0 1 1 43.60 49.53 2.06 o
-1 2 1 8740.43 8750.14 168.55 o
0 2 1 161.79 134.10 6.19 o
-2 3 1 42015.70 41178.50 1202.52 o
-1 3 1 27139.20 27493.90 397.53 o
0 3 1 20.36 49.54 4.13 o
-3 4 1 2808.05 3126.15 63.58 o
-2 4 1 6094.61 6103.24 86.76 o
-1 4 1 32.77 42.66 4.82 o
-4 5 1 2109.33 2068.06 20.56 o
-3 5 1 21901.50 22180.90 432.75 o
-2 5 1 13384.20 13604.50 115.89 o
-1 5 1 181.37 173.35 4.82 o
0 5 1 178.58 205.69 4.82 o
-5 6 1 11561.90 11368.80 76.39 o
-4 6 1 3492.44 3572.86 24.64 o
-3 6 1 26667.50 26524.50 213.59 o
-2 6 1 1078.65 1075.79 10.30 o
-1 6 1 4633.27 4505.94 29.38 o
0 6 1 2189.74 2241.33 16.47 o
-6 7 1 17979.60 18190.20 112.94 o
-5 7 1 6871.91 6873.55 43.64 o
-4 7 1 11525.40 11548.70 71.78 o
-3 7 1 39.57 49.54 2.75 o
-2 7 1 14974.40 14701.20 89.00 o
-1 7 1 8417.39 8158.70 51.74 o
0 7 1 2432.80 2332.31 18.53 o
-7 8 1 3181.58 3180.60 24.00 o
-6 8 1 2473.25 2482.01 18.53 o
-5 8 1 625.83 625.75 7.56 o
-4 8 1 1185.60 1118.72 11.68 o
-3 8 1 3138.53 3164.75 22.62 o
-2 8 1 9989.06 9712.89 63.95 o
-1 8 1 1005.14 1043.46 11.69 o
0 8 1 223.64 251.11 5.50 o
-8 9 1 774.66 827.91 10.31 o
-7 9 1 6468.26 6440.44 46.49 o
-6 9 1 4590.70 4429.88 32.87 o
-5 9 1 565.62 605.89 8.94 o
-4 9 1 2126.69 2061.21 18.54 o
-3 9 1 3230.11 3242.04 26.06 o
-2 9 1 480.67 485.59 8.25 o
-1 9 1 6.74 19.27 2.75 o
0 9 1 463.97 459.48 8.25 o
-9 10 1 506.05 508.31 10.32 o
-8 10 1 10051.80 9995.90 74.33 o
-7 10 1 8825.95 8848.50 66.89 o
-6 10 1 141.27 137.61 6.19 o
-5 10 1 1488.68 1458.19 15.12 o
-4 10 1 9315.98 9289.11 69.58 o
-3 10 1 10414.10 10325.20 76.33 o
-2 10 1 1487.68 1488.53 15.81 o
-1 10 1 240.45 243.55 6.88 o
0 10 1 2667.40 2646.23 24.72 o
-10 11 1 13860.70 13656.50 100.71 o
-9 11 1 12.36 35.09 4.82 o
-8 11 1 927.89 968.15 13.75 o
-7 11 1 1808.69 1805.64 19.93 o
-6 11 1 11040.50 10894.10 90.65 o
-5 11 1 2668.28 2617.16 25.40 o
-4 11 1 3962.06 3958.51 34.98 o
-3 11 1 185.85 176.82 6.88 o
-2 11 1 10272.50 10040.40 73.01 o
-1 11 1 1756.05 1735.12 20.62 o
0 11 1 1700.66 1780.61 21.30 o
-11 12 1 1893.42 1871.79 24.74 o
-10 12 1 567.06 591.54 11.69 o
-9 12 1 217.31 233.24 8.26 o
-8 12 1 62.22 72.25 5.50 o
-7 12 1 1687.91 1727.64 22.68 o
-6 12 1 3270.77 3334.86 35.00 o
-5 12 1 318.12 288.26 9.63 o
-4 12 1 596.86 599.77 11.69 o
-3 12 1 4756.32 4669.39 41.82 o
-2 12 1 5310.54 5284.43 45.92 o
-1 12 1 136.93 158.94 8.26 o
0 12 1 34.28 41.29 5.50 o
-12 13 1 505.88 529.67 15.13 o
-11 13 1 1498.56 1496.40 22.00 o
-10 13 1 138.47 146.56 8.26 o
-9 13 1 94.79 101.15 6.88 o
-8 13 1 153.50 167.20 8.26 o
-7 13 1 665.75 683.66 14.44 o
-6 13 1 184.72 188.52 8.94 o
-5 13 1 8.86 22.02 4.82 o
-4 13 1 133.72 136.93 8.26 o
-3 13 1 120.67 125.92 6.88 o
-2 13 1 2.54 15.14 4.82 o
-1 13 1 3.84 6.88 5.51 <
0 13 1 6.74 17.89 6.19 <
-13 14 1 15.94 18.58 6.19 o
-12 14 1 5751.39 5750.16 65.78 o
-11 14 1 1767.42 1764.82 25.43 o
-10 14 1 789.72 795.02 16.51 o
-9 14 1 117.19 134.18 8.26 o
-8 14 1 2831.91 2791.35 33.65 o
-7 14 1 4513.03 4430.34 46.64 o
-6 14 1 89.05 82.57 6.88 o
-5 14 1 635.72 640.35 15.13 o
-4 14 1 3010.06 3027.20 35.70 o
-3 14 1 2961.60 2946.30 41.20 o
-2 14 1 34.09 37.85 6.88 o
-1 14 1 92.32 97.71 10.32 o
0 14 1 802.57 812.89 24.07 o
-14 15 1 1987.97 2066.82 41.23 o
-13 15 1 149.73 141.05 10.32 o
-12 15 1 1257.09 1273.93 25.44 o
-11 15 1 1545.95 1501.85 27.49 o
-10 15 1 3066.18 3057.99 36.39 o
-9 15 1 62.60 59.18 6.88 o
-8 15 1 2729.23 2716.07 33.65 o
-7 15 1 1.50 8.26 5.51 <
-6 15 1 3844.69 3847.37 43.23 o
-5 15 1 34.60 39.22 6.88 o
-4 15 1 3840.57 3737.58 48.72 o
-3 15 1 204.80 210.54 11.70 o
-2 15 1 924.23 954.47 26.13 o
-1 15 1 381.05 363.92 24.08 o
0 15 1 2282.46 2297.83 44.65 o
-15 16 1 1696.24 1762.78 38.49 o
-14 16 1 67.51 63.31 11.01 o
-13 16 1 43.85 60.55 8.26 o
-12 16 1 312.71 299.96 13.76 o
-11 16 1 2383.46 2472.18 46.71 o
-10 16 1 1725.41 1709.88 26.12 o
-9 16 1 98.09 97.71 8.26 o
-8 16 1 116.54 107.34 8.26 o
-7 16 1 2926.53 2952.52 37.08 o
-6 16 1 2740.15 2753.09 40.52 o
-5 16 1 1.95 4.82 6.19 <
-4 16 1 67.70 72.94 8.95 o
-3 16 1 1754.05 1764.79 37.80 o
-2 16 1 2290.09 2352.76 45.34 o
-1 16 1 36.66 29.59 8.95 o
0 16 1 410.32 412.06 27.52 o
-16 17 1 256.41 253.87 23.39 o
-15 17 1 784.60 786.75 25.45 o
-14 17 1 130.91 136.93 13.76 o
-13 17 1 0.23 1.38 6.19 <
-12 17 1 273.23 249.05 15.82 o
-11 17 1 88.18 88.76 9.63 o
-10 17 1 38.22 42.66 7.57 o
-9 17 1 16.79 21.33 6.19 o
-8 17 1 30.83 28.90 7.57 o
-7 17 1 40.94 47.48 8.26 o
-6 17 1 43.88 52.98 8.26 o
-5 17 1 0.06 0.00 6.19 <
-4 17 1 14.20 7.57 8.26 <
-3 17 1 644.57 666.47 23.39 o
-2 17 1 87.49 97.71 12.39 o
-1 17 1 45.81 55.74 11.01 o
0 17 1 59.24 52.30 14.45 o
-15 18 1 28.21 24.77 13.76 <
-14 18 1 184.34 185.08 21.33 o
-13 18 1 51.94 42.66 14.45 <
-12 18 1 2136.07 2131.09 43.97 o
-11 18 1 975.91 980.55 28.88 o
-10 18 1 97.65 88.76 11.70 o
-9 18 1 34.93 41.98 10.32 o
-8 18 1 1805.81 1915.87 41.92 o
-7 18 1 1240.47 1310.34 27.50 o
-6 18 1 25.26 39.91 9.63 o
-5 18 1 29.68 37.16 9.63 o
-4 18 1 877.60 920.79 28.19 o
-3 18 1 979.29 986.04 40.57 o
-13 19 1 221.40 180.26 21.33 o
-12 19 1 938.81 965.44 28.88 o
-11 19 1 623.72 627.97 23.39 o
-10 19 1 1358.98 1396.14 35.06 o
-9 19 1 244.20 231.86 16.51 o
-8 19 1 1067.82 1056.11 42.63 o
-7 19 1 0.02 8.26 12.39 <
-6 19 1 961.27 1015.62 41.95 o
0 0 2 36720.90 38083.90 832.13 o
0 1 2 21632.10 21730.10 183.46 o
-1 2 2 35919.30 38389.60 350.06 o
0 2 2 2573.84 2551.56 21.85 o
-2 3 2 7.32 -9.63 2.06 <
-1 3 2 1341.43 1611.67 21.26 o
0 3 2 8398.37 9130.24 135.57 o
-3 4 2 8019.13 7551.60 111.66 o
-2 4 2 45082.80 46421.20 561.58 o
-1 4 2 22765.10 22084.90 318.14 o
0 4 2 52783.40 52262.60 529.31 o
-4 5 2 2819.84 2916.91 22.60 o
-3 5 2 1924.13 1789.99 21.95 o
-2 5 2 1448.42 1435.25 17.85 o
-1 5 2 1372.43 1376.55 13.73 o
0 5 2 41141.40 40305.90 288.51 o
-5 6 2 287.07 282.02 4.82 o
-4 6 2 1607.35 1629.78 13.04 o
-3 6 2 29143.70 29309.50 174.05 o
-2 6 2 59.01 82.57 3.44 o
-1 6 2 6200.84 6124.07 48.43 o
0 6 2 16042.40 16167.10 88.90 o
-6 7 2 1199.94 1208.70 10.99 o
-5 7 2 14385.10 14718.20 90.52 o
-4 7 2 2246.10 2250.56 15.78 o
-3 7 2 3368.59 3261.99 24.67 o
-2 7 2 37822.20 37717.40 241.93 o
-1 7 2 1711.86 1697.59 15.11 o
0 7 2 1755.06 1733.44 13.74 o
-7 8 2 16967.70 16884.00 102.72 o
-6 8 2 1557.66 1534.01 13.05 o
-5 8 2 24983.20 24763.70 152.38 o
-4 8 2 1733.18 1699.11 15.80 o
-3 8 2 6738.05 6775.83 46.44 o
-2 8 2 467.51 499.33 8.25 o
-1 8 2 128.68 147.24 4.82 o
0 8 2 26460.50 26102.90 175.48 o
-8 9 2 2314.11 2332.59 21.29 o
-7 9 2 286.18 299.26 6.19 o
-6 9 2 5610.83 5556.46 37.64 o
-5 9 2 25186.10 25278.00 162.21 o
-4 9 2 10709.40 10616.10 70.79 o
-3 9 2 19977.30 19956.80 127.44 o
-2 9 2 1338.47 1348.39 15.12 o
-1 9 2 24988.60 24798.20 165.29 o
0 9 2 11.73 14.45 3.44 o
-9 10 2 287.29 284.82 7.57 o
-8 10 2 11542.80 11534.20 84.46 o
-7 10 2 299.68 318.52 6.88 o
-6 10 2 1928.97 1944.01 18.55 o
-5 10 2 4224.35 4260.21 32.90 o
-4 10 2 2.87 5.51 2.75 <
-3 10 2 191.96 209.16 6.88 o
-2 10 2 6215.89 6116.47 47.22 o
-1 10 2 6128.65 6043.38 51.34 o
0 10 2 862.69 861.63 15.13 o
-10 11 2 15639.70 15543.40 126.40 o
-9 11 2 326.23 324.72 8.94 o
-8 11 2 1015.40 1068.47 15.13 o
-7 11 2 8714.49 8747.06 66.94 o
-6 11 2 115.10 115.60 5.50 o
-5 11 2 123.98 110.78 5.50 o
-4 11 2 5906.12 5956.45 48.62 o
-3 11 2 25.49 31.65 4.13 o
-2 11 2 565.49 584.65 11.69 o
-1 11 2 5418.24 5344.51 50.70 o
0 11 2 67.01 60.55 6.88 o
-11 12 2 90.93 86.01 6.88 o
-10 12 2 891.41 904.28 15.82 o
-9 12 2 36.70 48.86 4.82 o
-8 12 2 9655.86 9784.45 75.12 o
-7 12 2 38.65 41.29 4.82 o
-6 12 2 9300.00 9192.89 71.04 o
-5 12 2 6337.53 6289.40 52.04 o
-4 12 2 8939.62 8901.11 66.96 o
-3 12 2 6583.20 6564.72 56.82 o
-2 12 2 367.67 376.30 11.01 o
-1 12 2 1448.46 1473.75 22.00 o
0 12 2 265.69 288.96 10.32 o
-12 13 2 132.43 129.36 8.26 o
-11 13 2 4819.69 4792.08 48.68 o
-10 13 2 3941.85 3886.07 41.17 o
-9 13 2 16247.30 16153.90 131.85 o
-8 13 2 537.74 559.23 13.07 o
-7 13 2 286.82 289.64 9.63 o
-6 13 2 6523.15 6492.40 60.25 o
-5 13 2 1416.99 1439.41 18.56 o
-4 13 2 6290.75 6347.95 56.84 o
-3 13 2 93.42 94.96 6.88 o
-2 13 2 2773.33 2722.13 32.96 o
-1 13 2 14236.50 14128.20 166.80 o
0 13 2 6859.32 6873.64 75.99 o
-13 14 2 3677.95 3678.31 58.33 o
-12 14 2 587.32 604.61 16.51 o
-11 14 2 29.02 41.29 6.88 o
-10 14 2 1774.28 1706.39 28.18 o
-9 14 2 670.12 700.17 17.19 o
-8 14 2 421.29 423.07 12.38 o
-7 14 2 8572.32 8571.13 77.26 o
-6 14 2 1879.01 1905.53 30.24 o
-5 14 2 2904.40 2887.36 39.83 o
-4 14 2 5898.09 5946.12 67.14 o
-3 14 2 149.92 145.87 8.94 o
-2 14 2 1768.24 1788.18 26.11 o
-1 14 2 28.82 45.42 6.19 o
0 14 2 168.12 193.34 11.01 o
-14 15 2 3.45 8.26 6.19 <
-13 15 2 176.73 172.70 11.01 o
-12 15 2 2933.36 2984.09 41.88 o
-11 15 2 143.44 162.38 10.32 o
-10 15 2 162.29 155.50 10.32 o
-9 15 2 4921.98 4921.38 58.96 o
-8 15 2 660.47 658.91 15.82 o
-7 15 2 59.23 59.18 7.57 o
-6 15 2 3983.95 3962.23 50.77 o
-5 15 2 14.35 26.84 6.88 o
-4 15 2 45.41 40.60 6.88 o
-3 15 2 4744.07 4718.97 58.28 o
-2 15 2 1.33 6.19 6.19 <
-1 15 2 4.91 6.88 7.57 <
0 15 2 3714.07 3738.36 85.09 o
-15 16 2 102.55 75.00 15.14 o
-14 16 2 756.46 729.01 24.07 o
-13 16 2 4320.36 4266.87 93.28 o
-12 16 2 2007.52 1989.14 40.54 o
-11 16 2 4395.68 4312.02 67.21 o
-10 16 2 33.51 32.34 8.95 o
-9 16 2 4538.21 4426.83 67.89 o
-8 16 2 455.89 454.70 19.26 o
-7 16 2 28.74 28.21 8.26 o
-6 16 2 18.51 22.71 6.88 o
-5 16 2 399.17 394.18 15.13 o
-4 16 2 2767.24 2785.26 68.67 o
-3 16 2 17.73 27.53 7.57 o
-2 16 2 4330.69 4224.91 92.59 o
-1 16 2 946.45 933.12 37.82 o
0 16 2 513.60 514.52 28.20 o
-16 17 2 1798.52 1769.49 53.60 o
-15 17 2 65.15 66.75 14.45 o
-14 17 2 3655.23 3538.74 83.03 o
-13 17 2 250.60 253.19 15.82 o
-12 17 2 45.26 58.49 10.32 o
-11 17 2 0.06 4.82 7.57 <
-10 17 2 16.80 19.27 8.26 <
-9 17 2 6874.75 6816.67 133.49 o
-8 17 2 726.31 697.39 24.07 o
-7 17 2 4123.09 4130.98 66.54 o
-6 17 2 1248.63 1251.22 43.31 o
-5 17 2 5775.68 5660.97 115.10 o
-4 17 2 251.44 238.74 16.51 o
-3 17 2 111.12 98.40 16.51 o
-2 17 2 455.13 490.47 28.20 o
-1 17 2 243.44 268.32 23.39 o
-15 18 2 1408.28 1371.34 46.74 o
-14 18 2 1656.75 1659.04 37.80 o
-13 18 2 49.42 42.66 10.32 o
-12 18 2 2883.39 2812.35 51.50 o
-11 18 2 206.87 207.79 15.82 o
-10 18 2 1823.74 1784.59 39.17 o
-9 18 2 165.10 163.07 15.14 o
-8 18 2 66.90 56.42 11.01 o
-7 18 2 2.23 8.26 8.26 <
-6 18 2 25.69 35.78 10.32 o
-5 18 2 1596.12 1561.52 37.11 o
-4 18 2 149.39 159.63 19.95 o
-3 18 2 2285.78 2343.78 63.88 o
-13 19 2 14.26 33.03 9.63 o
-12 19 2 1.29 10.32 8.95 <
-11 19 2 2487.11 2441.62 48.08 o
-10 19 2 7.43 15.14 8.95 <
-9 19 2 35.30 38.53 10.32 o
-8 19 2 3200.23 3175.44 56.97 o
-7 19 2 41.47 41.97 11.01 o
-6 19 2 103.15 115.60 17.89 o
0 1 3 326.68 330.05 9.63 o
-1 2 3 17051.20 17500.80 177.71 o
0 2 3 2903.81 2995.60 32.14 o
-2 3 3 42148.00 43724.00 322.25 o
-1 3 3 23643.20 23607.60 232.87 o
0 3 3 18.49 19.27 2.06 o
-3 4 3 84.80 97.70 3.44 o
-2 4 3 2975.74 3022.23 21.22 o
-1 4 3 20.71 32.34 2.75 o
0 4 3 11.11 -8.95 2.06 <
-4 5 3 2753.36 2620.75 20.56 o
-3 5 3 19649.40 19945.10 126.71 o
-2 5 3 6479.37 6473.58 44.28 o
-1 5 3 1000.02 956.48 10.99 o
0 5 3 481.48 445.62 6.88 o
-5 6 3 10985.40 10733.00 68.52 o
-4 6 3 3485.32 3516.55 21.92 o
-3 6 3 15946.70 16033.90 121.16 o
-2 6 3 2900.55 2821.47 21.94 o
-1 6 3 2298.07 2330.76 19.90 o
0 6 3 1188.04 1172.98 11.68 o
-6 7 3 12899.00 12958.70 82.06 o
-5 7 3 6490.39 6515.20 40.98 o
-4 7 3 11848.50 11748.60 63.09 o
-3 7 3 0.38 6.19 2.06 <
-2 7 3 13714.30 13575.60 91.40 o
-1 7 3 7974.16 7820.45 55.24 o
0 7 3 725.20 752.25 10.31 o
-7 8 3 2215.17 2226.75 19.91 o
-6 8 3 4421.28 4379.27 29.46 o
-5 8 3 427.92 431.27 6.19 o
-4 8 3 66.90 68.81 3.44 o
-3 8 3 2970.70 3060.18 23.32 o
-2 8 3 7287.78 7333.04 52.59 o
-1 8 3 285.33 317.83 6.19 o
0 8 3 122.20 135.55 4.82 o
-8 9 3 682.88 700.10 10.32 o
-7 9 3 5816.08 5843.05 43.80 o
-6 9 3 2590.20 2581.06 19.91 o
-5 9 3 467.84 496.61 7.57 o
-4 9 3 1631.38 1602.23 15.12 o
-3 9 3 1506.62 1553.66 16.49 o
-2 9 3 778.54 786.66 11.00 o
-1 9 3 101.97 107.34 5.50 o
0 9 3 377.17 398.99 8.94 o
-9 10 3 766.91 777.79 13.75 o
-8 10 3 10175.90 10040.50 83.23 o
-7 10 3 8743.05 8721.53 66.24 o
-6 10 3 180.82 181.64 6.19 o
-5 10 3 1056.08 1076.62 12.38 o
-4 10 3 6930.76 6911.24 47.88 o
-3 10 3 8097.67 8173.00 60.13 o
-2 10 3 1205.73 1168.64 15.81 o
-1 10 3 655.34 634.12 11.69 o
0 10 3 2266.44 2269.50 26.10 o
-10 11 3 13696.40 13503.90 110.97 o
-9 11 3 123.76 134.17 6.88 o
-8 11 3 1581.69 1535.34 20.62 o
-7 11 3 1856.40 1840.73 20.61 o
-6 11 3 10690.80 10731.60 71.62 o
-5 11 3 1129.71 1137.81 14.44 o
-4 11 3 3712.42 3727.32 35.67 o
-3 11 3 71.74 77.76 5.50 o
-2 11 3 8351.93 8249.40 67.67 o
-1 11 3 1987.23 2023.44 25.42 o
0 11 3 1111.66 1142.03 18.56 o
-11 12 3 1424.72 1445.61 21.31 o
-10 12 3 504.22 509.03 12.38 o
-9 12 3 173.31 183.02 8.26 o
-8 12 3 69.38 69.50 6.19 o
-7 12 3 2046.39 2041.20 22.67 o
-6 12 3 2818.71 2888.62 28.15 o
-5 12 3 176.23 174.07 7.57 o
-4 12 3 406.42 410.00 10.32 o
-3 12 3 3582.10 3543.78 35.68 o
-2 12 3 3854.59 3888.27 40.48 o
-1 12 3 77.68 86.70 6.88 o
0 12 3 40.86 45.42 5.50 o
-12 13 3 597.24 613.55 14.44 o
-11 13 3 1827.78 1776.42 24.74 o
-10 13 3 23.67 22.02 4.82 o
-9 13 3 25.48 41.98 5.50 o
-8 13 3 281.25 278.64 11.70 o
-7 13 3 338.88 333.66 14.45 o
-6 13 3 207.08 200.22 10.32 o
-5 13 3 0.02 -3.44 4.13 <
-4 13 3 13.66 16.52 4.82 o
-3 13 3 223.20 203.65 8.94 o
-2 13 3 1.23 15.14 4.82 o
-1 13 3 12.77 19.27 5.51 o
0 13 3 127.54 134.86 10.32 o
-13 14 3 0.86 8.26 6.19 <
-12 14 3 5304.73 5142.70 61.00 o
-11 14 3 1571.31 1538.26 27.49 o
-10 14 3 1067.53 1087.08 26.13 o
-9 14 3 206.64 216.73 13.07 o
-8 14 3 3005.56 2968.86 48.06 o
-7 14 3 3517.96 3562.09 54.91 o
-6 14 3 37.15 46.79 8.26 o
-5 14 3 407.48 409.32 13.76 o
-4 14 3 2343.98 2374.07 35.03 o
-3 14 3 2290.30 2236.77 34.35 o
-2 14 3 10.93 19.96 6.19 o
-1 14 3 104.73 98.40 8.95 o
0 14 3 631.28 613.53 17.88 o
-14 15 3 1823.91 1713.84 36.42 o
-13 15 3 139.50 115.60 11.70 o
-12 15 3 1327.13 1210.61 29.56 o
-11 15 3 1652.36 1584.20 33.68 o
-10 15 3 2784.93 2778.43 48.07 o
-9 15 3 99.15 102.53 11.01 o
-8 15 3 1852.89 1794.94 36.42 o
-7 15 3 3.09 6.19 6.88 <
-6 15 3 2777.30 2711.16 47.38 o
-5 15 3 7.34 13.76 7.57 <
-4 15 3 3682.53 3662.49 59.02 o
-3 15 3 285.62 329.55 16.51 o
-2 15 3 1005.66 987.42 26.13 o
-1 15 3 344.66 348.80 14.45 o
0 15 3 1754.79 1747.59 37.80 o
-15 16 3 1207.75 1236.12 31.62 o
-14 16 3 131.49 121.79 12.39 o
-13 16 3 87.27 90.14 11.01 o
-12 16 3 85.51 78.44 10.32 o
-11 16 3 2247.47 2162.59 41.91 o
-10 16 3 1804.93 1742.75 36.42 o
-9 16 3 181.98 199.53 13.76 o
-8 16 3 160.20 169.26 13.76 o
-7 16 3 2872.46 2813.91 50.13 o
-6 16 3 2320.85 2253.15 43.28 o
-5 16 3 18.26 18.58 8.26 <
-4 16 3 86.33 72.94 11.01 o
-3 16 3 1262.23 1308.27 42.62 o
-2 16 3 2132.63 2089.21 42.59 o
-1 16 3 22.42 18.58 11.70 <
0 16 3 489.17 517.28 28.20 o
-16 17 3 266.44 260.06 22.02 o
-15 17 3 620.83 610.77 22.70 o
-14 17 3 71.00 63.99 11.01 o
-13 17 3 1.55 3.44 7.57 <
-12 17 3 243.18 225.67 15.14 o
-11 17 3 35.84 50.92 9.63 o
-10 17 3 67.79 70.19 11.01 o
-9 17 3 41.02 38.53 9.63 o
-8 17 3 35.41 40.60 9.63 o
-7 17 3 34.33 35.78 9.63 o
-6 17 3 58.73 61.24 11.01 o
-5 17 3 0.54 -0.69 7.57 <
-4 17 3 7.46 6.88 8.26 <
-3 17 3 790.36 844.52 26.82 o
-2 17 3 41.59 37.16 13.07 <
-1 17 3 11.09 6.19 11.70 <
-14 18 3 254.58 263.51 16.51 o
-13 18 3 95.82 97.02 12.39 o
-12 18 3 1844.37 1907.55 40.54 o
-11 18 3 651.92 643.77 23.38 o
-10 18 3 22.91 19.27 8.95 <
-9 18 3 19.74 31.65 9.63 o
-8 18 3 1337.64 1390.67 34.37 o
-7 18 3 1541.71 1587.02 37.12 o
-6 18 3 14.10 22.71 9.63 <
-5 18 3 4.10 7.57 8.95 <
-4 18 3 887.67 871.96 36.45 o
-3 18 3 826.82 854.81 36.45 o
-12 19 3 1019.42 1069.21 29.57 o
-11 19 3 630.60 652.04 23.39 o
-10 19 3 1321.48 1310.25 33.00 o
-9 19 3 218.78 221.54 16.51 o
-8 19 3 981.16 951.66 28.88 o
-7 19 3 0.11 -7.57 8.26 <
0 1 4 86.12 72.24 4.13 o
-1 2 4 2082.48 2016.51 19.88 o
0 2 4 7593.88 7654.52 59.77 o
-2 3 4 15491.50 15406.90 158.29 o
-1 3 4 14771.50 15011.00 108.12 o
0 3 4 20933.80 20624.90 153.02 o
-3 4 4 1757.98 1803.86 15.79 o
-2 4 4 372.93 374.14 6.19 o
-1 4 4 1028.31 947.54 10.31 o
0 4 4 11480.00 11235.40 69.75 o
-4 5 4 21474.10 20972.80 141.10 o
-3 5 4 4796.93 4954.69 35.56 o
-2 5 4 5431.02 5247.00 41.68 o
-1 5 4 42990.80 43212.20 279.96 o
0 5 4 7286.17 7068.17 45.01 o
-5 6 4 9347.19 9225.51 57.86 o
-4 6 4 13429.90 13437.40 88.70 o
-3 6 4 635.90 604.42 10.31 o
-2 6 4 9722.64 9811.80 63.94 o
-1 6 4 553.97 621.00 8.25 o
0 6 4 2952.85 2786.94 23.32 o
-6 7 4 13645.40 13634.80 90.23 o
-5 7 4 4154.15 4112.74 29.46 o
-4 7 4 2408.99 2384.40 22.65 o
-3 7 4 1559.50 1607.54 15.80 o
-2 7 4 14.14 19.27 2.75 o
-1 7 4 13724.60 13539.30 96.33 o
0 7 4 2272.47 2339.29 23.34 o
-7 8 4 1405.08 1417.79 17.18 o
-6 8 4 2462.10 2532.57 22.66 o
-5 8 4 3512.81 3419.98 28.12 o
-4 8 4 35172.70 34861.40 219.66 o
-3 8 4 77.85 103.21 4.82 o
-2 8 4 9721.70 9648.94 71.58 o
-1 8 4 18273.10 18056.20 126.48 o
0 8 4 6471.30 6355.28 51.31 o
-8 9 4 439.36 451.94 9.63 o
-7 9 4 7933.25 7997.21 61.50 o
-6 9 4 6350.38 6421.46 50.63 o
-5 9 4 5801.79 5737.69 45.86 o
-4 9 4 258.31 250.42 6.88 o
-3 9 4 205.75 238.74 6.88 o
-2 9 4 1716.76 1812.58 19.93 o
-1 9 4 5232.62 5225.05 43.84 o
0 9 4 17787.10 17800.60 140.34 o
-9 10 4 2455.63 2463.52 31.59 o
-8 10 4 825.82 816.96 14.44 o
-7 10 4 7280.53 7391.00 62.24 o
-6 10 4 602.74 643.77 12.38 o
-5 10 4 6242.47 6281.75 50.65 o
-4 10 4 5240.25 5319.86 44.53 o
-3 10 4 5585.11 5627.51 46.58 o
-2 10 4 3547.93 3595.42 37.05 o
-1 10 4 31.68 37.85 4.82 o
0 10 4 1238.27 1306.89 22.00 o
-10 11 4 33.11 55.05 6.19 o
-9 11 4 1898.23 1947.32 28.17 o
-8 11 4 951.42 991.55 16.50 o
-7 11 4 1227.06 1231.95 18.56 o
-6 11 4 5471.77 5479.02 50.01 o
-5 11 4 5843.30 5807.52 51.37 o
-4 11 4 2802.90 2765.67 28.15 o
-3 11 4 2606.11 2663.15 30.90 o
-2 11 4 6674.22 6709.56 61.61 o
-1 11 4 1966.38 1977.49 28.86 o
0 11 4 3110.62 3101.04 39.82 o
-11 12 4 1879.38 1868.43 28.86 o
-10 12 4 670.45 654.09 15.82 o
-9 12 4 13825.60 13902.70 159.33 o
-8 12 4 1257.74 1244.34 22.00 o
-7 12 4 4128.30 4175.46 42.53 o
-6 12 4 685.13 696.72 14.44 o
-5 12 4 237.85 252.50 8.94 o
-4 12 4 798.36 797.76 16.51 o
-3 12 4 1030.15 1058.22 17.88 o
-2 12 4 5169.26 5070.40 56.89 o
-1 12 4 192.56 194.71 10.32 o
0 12 4 6587.02 6478.56 70.53 o
-12 13 4 1203.82 1192.16 23.38 o
-11 13 4 780.15 750.32 17.88 o
-10 13 4 76.63 68.81 7.57 o
-9 13 4 4646.60 4506.08 52.80 o
-8 13 4 6060.28 5912.38 65.08 o
-7 13 4 4135.84 4140.05 43.22 o
-6 13 4 636.81 638.98 15.82 o
-5 13 4 17774.20 17500.00 163.62 o
-4 13 4 552.70 553.72 15.13 o
-3 13 4 1657.82 1622.00 26.80 o
-2 13 4 1862.71 1885.64 29.55 o
-1 13 4 4321.92 4308.30 52.82 o
0 13 4 986.84 968.87 21.32 o
-13 14 4 502.58 496.65 15.82 o
-12 14 4 3901.73 3887.62 59.01 o
-11 14 4 1562.32 1553.38 27.49 o
-10 14 4 2391.90 2328.64 40.53 o
-9 14 4 565.99 579.86 15.82 o
-8 14 4 4540.99 4467.41 64.47 o
-7 14 4 81.36 87.39 9.63 o
-6 14 4 52.77 59.87 7.57 o
-5 14 4 2.04 14.45 5.51 <
-4 14 4 495.48 491.15 15.13 o
-3 14 4 2848.19 2811.95 39.14 o
-2 14 4 24.18 24.08 6.88 o
-1 14 4 7247.86 7271.58 80.07 o
0 14 4 679.75 641.70 17.88 o
-14 15 4 1357.10 1335.67 26.81 o
-13 15 4 529.95 497.32 16.51 o
-12 15 4 839.03 805.99 23.38 o
-11 15 4 981.60 944.81 25.44 o
-10 15 4 2694.81 2582.87 44.64 o
-9 15 4 394.58 421.70 17.20 o
-8 15 4 429.45 421.01 17.20 o
-7 15 4 2574.39 2527.49 44.64 o
-6 15 4 539.06 531.03 19.26 o
-5 15 4 2025.25 2038.61 32.29 o
-4 15 4 2204.65 2118.02 40.53 o
-3 15 4 155.11 171.33 11.01 o
-2 15 4 1322.34 1341.21 26.12 o
-1 15 4 1068.67 1088.43 24.07 o
0 15 4 94.24 114.91 10.32 o
-15 16 4 1588.08 1483.87 45.36 o
-14 16 4 1625.37 1611.67 35.74 o
-13 16 4 674.49 668.53 22.70 o
-12 16 4 22.10 24.77 8.26 <
-11 16 4 146.22 131.42 11.70 o
-10 16 4 909.98 868.52 24.76 o
-9 16 4 551.51 544.09 19.95 o
-8 16 4 3279.70 3218.69 54.23 o
-7 16 4 1636.43 1562.21 34.36 o
-6 16 4 1295.44 1202.37 30.25 o
-5 16 4 2962.46 2923.51 51.49 o
-4 16 4 182.07 174.07 14.45 o
-3 16 4 1156.98 1163.99 39.19 o
-2 16 4 23.98 33.72 7.57 o
-1 16 4 7.60 13.07 6.88 <
0 16 4 102.86 101.84 11.70 o
-15 17 4 515.24 493.20 20.64 o
-14 17 4 622.60 588.76 22.01 o
-13 17 4 6273.73 6120.76 86.97 o
-12 17 4 758.78 729.69 24.07 o
-11 17 4 1223.61 1201.05 30.25 o
-10 17 4 4186.33 4103.23 65.16 o
-9 17 4 1753.60 1783.32 38.48 o
-8 17 4 85.52 93.58 11.70 o
-7 17 4 98.65 100.46 11.70 o
-6 17 4 0.70 2.06 7.57 <
-5 17 4 1489.71 1489.49 46.05 o
-4 17 4 2535.46 2523.27 63.87 o
-3 17 4 1681.23 1754.53 38.49 o
-2 17 4 124.09 125.23 17.20 o
-14 18 4 77.33 74.31 11.70 o
-13 18 4 473.49 454.01 19.95 o
-12 18 4 89.34 104.59 12.39 o
-11 18 4 311.85 317.84 17.20 o
-10 18 4 62.57 55.74 11.01 o
-9 18 4 2433.66 2469.21 47.39 o
-8 18 4 1486.86 1511.48 35.74 o
-7 18 4 996.96 998.41 28.88 o
-6 18 4 4193.01 4499.53 70.65 o
-5 18 4 101.80 99.77 12.39 o
-4 18 4 376.20 373.55 24.77 o
0 1 5 61.63 68.12 3.44 o
-1 2 5 4013.65 4107.87 31.48 o
0 2 5 29.45 30.96 2.75 o
-2 3 5 24383.60 23954.30 157.73 o
-1 3 5 15520.20 15479.10 108.50 o
0 3 5 37.65 39.22 2.75 o
-3 4 5 1605.56 1510.96 14.42 o
-2 4 5 3451.67 3413.07 28.09 o
-1 4 5 43.89 48.86 3.44 o
0 4 5 187.84 172.68 4.13 o
-4 5 5 1042.86 1000.77 11.68 o
-3 5 5 12690.90 12458.10 87.48 o
-2 5 5 8269.91 7963.51 58.62 o
-1 5 5 30.72 33.03 2.75 o
0 5 5 67.66 66.06 3.44 o
-5 6 5 6979.86 6810.41 45.09 o
-4 6 5 2238.00 2201.02 21.97 o
-3 6 5 17058.90 16715.60 115.53 o
-2 6 5 438.48 430.58 8.25 o
-1 6 5 3416.45 3360.82 26.74 o
0 6 5 1584.87 1532.85 15.80 o
-6 7 5 12061.10 12029.50 79.60 o
-5 7 5 3915.94 3832.91 28.11 o
-4 7 5 5944.08 5734.53 45.84 o
-3 7 5 93.81 88.07 5.50 o
-2 7 5 9821.61 9700.07 65.44 o
-1 7 5 4339.42 4208.70 32.90 o
0 7 5 1585.30 1589.39 18.55 o
-7 8 5 2028.93 2042.93 22.67 o
-6 8 5 981.95 976.31 13.75 o
-5 8 5 451.22 447.11 8.25 o
-4 8 5 796.41 788.72 11.00 o
-3 8 5 1649.95 1615.41 18.55 o
-2 8 5 6687.08 6584.64 51.99 o
-1 8 5 878.37 876.71 13.75 o
0 8 5 156.00 159.63 6.88 o
-8 9 5 688.65 684.32 13.76 o
-7 9 5 4132.10 4129.09 41.15 o
-6 9 5 3028.57 3007.05 35.69 o
-5 9 5 312.13 299.26 7.57 o
-4 9 5 1422.55 1412.42 19.93 o
-3 9 5 2546.03 2540.66 28.84 o
-2 9 5 275.57 271.75 8.26 o
-1 9 5 11.31 17.20 4.13 o
0 9 5 221.82 200.21 8.94 o
-9 10 5 307.63 302.71 9.63 o
-8 10 5 6220.67 6220.46 54.78 o
-7 10 5 5587.51 5636.10 50.70 o
-6 10 5 163.81 168.57 7.57 o
-5 10 5 984.71 1000.45 15.81 o
-4 10 5 6514.82 6566.03 53.39 o
-3 10 5 6856.90 6893.71 55.43 o
-2 10 5 927.27 945.50 15.13 o
-1 10 5 57.30 63.99 5.50 o
0 10 5 1755.19 1750.35 25.43 o
-10 11 5 9033.13 8964.91 89.53 o
-9 11 5 0.68 3.44 4.82 <
-8 11 5 485.30 492.52 11.69 o
-7 11 5 1089.78 1089.78 17.19 o
-6 11 5 7034.96 7028.67 61.60 o
-5 11 5 2338.05 2322.39 26.79 o
-4 11 5 2515.47 2534.31 26.79 o
-3 11 5 128.04 141.74 6.88 o
-2 11 5 7477.77 7570.33 68.42 o
-1 11 5 1151.88 1150.95 20.63 o
0 11 5 1349.14 1359.08 23.37 o
-11 12 5 1284.67 1267.03 22.69 o
-10 12 5 522.06 533.10 14.45 o
-9 12 5 140.01 148.62 8.94 o
-8 12 5 20.23 15.83 4.82 o
-7 12 5 1080.39 1100.81 18.56 o
-6 12 5 2276.20 2294.44 28.17 o
-5 12 5 158.57 170.64 8.26 o
-4 12 5 426.81 416.88 12.38 o
-3 12 5 3473.19 3426.27 41.87 o
-2 12 5 3845.07 3770.49 45.29 o
-1 12 5 133.60 123.85 8.94 o
0 12 5 14.45 15.83 5.51 <
-12 13 5 342.79 346.73 13.07 o
-11 13 5 963.05 929.01 19.94 o
-10 13 5 151.78 127.29 8.94 o
-9 13 5 93.17 84.64 7.57 o
-8 13 5 83.35 89.45 6.88 o
-7 13 5 576.98 561.97 13.76 o
-6 13 5 96.43 100.46 7.57 o
-5 13 5 18.05 22.71 5.51 o
-4 13 5 175.63 177.52 10.32 o
-3 13 5 45.69 46.10 6.88 o
-2 13 5 14.67 12.39 5.51 <
-1 13 5 1.45 8.95 5.51 <
0 13 5 3.08 4.13 6.19 <
-13 14 5 16.05 11.01 6.19 <
-12 14 5 4352.83 4240.14 52.81 o
-11 14 5 1240.54 1228.56 24.06 o
-10 14 5 481.88 486.34 17.20 o
-9 14 5 70.73 63.99 7.57 o
-8 14 5 1867.34 1891.13 30.24 o
-7 14 5 3297.29 3327.91 43.25 o
-6 14 5 69.68 63.31 7.57 o
-5 14 5 540.76 553.04 15.82 o
-4 14 5 2220.69 2166.79 32.98 o
-3 14 5 2342.60 2332.82 34.35 o
-2 14 5 28.16 26.15 6.19 o
-1 14 5 59.45 57.80 7.57 o
0 14 5 673.04 662.34 18.57 o
-14 15 5 1532.76 1525.18 28.18 o
-13 15 5 81.01 68.81 8.26 o
-12 15 5 867.25 880.92 21.32 o
-11 15 5 1004.77 953.72 21.32 o
-10 15 5 2406.46 2321.01 41.21 o
-9 15 5 42.10 34.41 8.26 o
-8 15 5 2303.66 2251.82 40.53 o
-7 15 5 3.44 27.53 7.57 o
-6 15 5 3043.71 3003.72 41.88 o
-5 15 5 44.26 40.60 6.88 o
-4 15 5 2551.81 2594.09 37.77 o
-3 15 5 103.78 94.96 8.95 o
-2 15 5 649.04 674.73 18.57 o
-1 15 5 335.74 358.43 14.45 o
0 15 5 1791.62 1733.77 30.92 o
-15 16 5 1428.89 1420.12 32.99 o
-14 16 5 48.26 40.60 9.63 o
-13 16 5 11.30 17.20 8.26 <
-12 16 5 342.95 331.60 16.51 o
-11 16 5 1809.06 1824.48 37.11 o
-10 16 5 1152.96 1107.62 27.50 o
-9 16 5 38.36 36.47 8.95 o
-8 16 5 70.69 70.19 10.32 o
-7 16 5 2062.37 1994.53 39.85 o
-6 16 5 2056.70 2087.29 40.54 o
-5 16 5 0.94 -4.13 6.88 <
-4 16 5 52.01 48.17 8.26 o
-3 16 5 1504.20 1516.28 28.18 o
-2 16 5 1708.40 1646.60 46.73 o
-1 16 5 25.73 26.84 7.57 o
0 16 5 231.19 211.22 19.26 o
-14 17 5 89.89 96.33 11.70 o
-13 17 5 0.34 2.06 8.26 <
-12 17 5 244.02 233.92 15.14 o
-11 17 5 72.99 81.88 11.01 o
-10 17 5 23.16 26.84 8.95 o
-9 17 5 13.19 17.89 8.26 <
-8 17 5 32.85 49.54 10.32 o
-7 17 5 26.71 25.46 8.95 <
-6 17 5 14.04 4.82 8.26 <
-5 17 5 0.31 2.75 8.26 <
-4 17 5 8.44 17.20 8.95 <
-3 17 5 351.12 354.98 17.89 o
-12 18 5 1719.50 1703.63 37.11 o
-11 18 5 867.75 838.28 26.13 o
-10 18 5 118.79 130.73 13.07 o
-9 18 5 33.73 55.74 10.32 o
-8 18 5 1550.20 1567.76 35.74 o
-7 18 5 783.47 797.07 25.45 o
-6 18 5 18.00 19.96 8.95 <
0 0 6 31366.20 31970.90 489.62 o
0 1 6 8933.84 9258.63 64.00 o
-1 2 6 19898.60 20311.50 151.23 o
0 2 6 1.83 0.00 2.06 <
-2 3 6 1258.58 1236.93 13.74 o
-1 3 6 19.30 28.21 2.75 o
0 3 6 842.08 863.52 9.63 o
-3 4 6 933.81 956.96 11.69 o
-2 4 6 17559.00 17043.50 117.49 o
-1 4 6 13757.20 13487.80 94.26 o
0 4 6 25341.70 25000.30 156.11 o
-4 5 6 793.43 774.24 10.31 o
-3 5 6 44.57 47.48 3.44 o
-2 5 6 98.80 114.22 4.82 o
-1 5 6 853.08 840.20 10.31 o
0 5 6 16785.90 16632.70 105.61 o
-5 6 6 20.92 25.46 2.75 o
-4 6 6 237.68 244.24 6.88 o
-3 6 6 15966.10 15598.60 109.79 o
-2 6 6 326.02 308.88 7.57 o
-1 6 6 1902.80 1935.11 18.55 o
0 6 6 9200.93 9272.05 63.47 o
-6 7 6 1587.40 1527.64 16.49 o
-5 7 6 4351.04 4381.78 33.59 o
-4 7 6 775.63 793.57 12.38 o
-3 7 6 756.39 759.88 11.69 o
-2 7 6 12837.20 12712.00 92.53 o
-1 7 6 866.97 818.27 11.69 o
0 7 6 219.53 220.16 6.88 o
-7 8 6 7422.75 7318.52 58.82 o
-6 8 6 156.22 170.64 6.88 o
-5 8 6 11659.80 11620.20 77.68 o
-4 8 6 1102.56 1084.88 15.12 o
-3 8 6 2696.50 2642.66 24.03 o
-2 8 6 248.67 237.36 7.57 o
-1 8 6 3.41 6.88 3.44 <
0 8 6 15432.60 15379.20 111.46 o
-8 9 6 1918.04 1932.85 23.36 o
-7 9 6 635.76 631.39 12.38 o
-6 9 6 2255.61 2268.83 29.54 o
-5 9 6 14861.90 15046.90 113.54 o
-4 9 6 4134.64 4124.04 37.04 o
-3 9 6 10974.60 10821.30 81.85 o
-2 9 6 282.57 289.64 8.94 o
-1 9 6 11937.30 11906.90 89.99 o
0 9 6 204.79 216.73 8.26 o
-9 10 6 59.26 77.07 7.57 o
-8 10 6 5568.32 5587.25 62.35 o
-7 10 6 697.59 691.90 16.51 o
-6 10 6 1350.01 1418.15 19.94 o
-5 10 6 1066.00 1097.36 16.50 o
-4 10 6 214.07 245.62 9.63 o
-3 10 6 134.08 123.85 7.57 o
-2 10 6 2447.18 2441.08 30.91 o
-1 10 6 2156.20 2133.19 38.47 o
0 10 6 128.19 112.84 11.01 o
-10 11 6 9125.86 8860.28 88.85 o
-9 11 6 80.87 95.65 6.88 o
-8 11 6 361.93 361.86 10.32 o
-7 11 6 4925.41 5010.93 48.68 o
-6 11 6 171.37 172.70 8.26 o
-5 11 6 288.99 277.26 9.63 o
-4 11 6 2618.10 2617.33 30.22 o
-3 11 6 82.06 102.53 6.88 o
-2 11 6 486.23 475.33 13.07 o
-1 11 6 2618.82 2575.49 33.65 o
0 11 6 29.82 46.10 6.19 o
-11 12 6 0.48 4.13 4.82 <
-10 12 6 262.93 262.13 11.01 o
-9 12 6 508.19 517.97 14.45 o
-8 12 6 5269.83 5256.63 52.09 o
-7 12 6 230.00 233.93 9.63 o
-6 12 6 4266.71 4301.60 44.59 o
-5 12 6 2977.25 2992.95 34.33 o
-4 12 6 4296.41 4291.92 44.59 o
-3 12 6 3146.88 3090.07 39.13 o
-2 12 6 481.08 465.70 13.76 o
-1 12 6 964.30 997.09 19.94 o
0 12 6 0.00 15.14 6.19 <
-12 13 6 36.60 31.65 6.88 o
-11 13 6 2879.04 2762.42 38.45 o
-10 13 6 2187.66 2148.99 32.29 o
-9 13 6 10284.60 10371.90 123.60 o
-8 13 6 260.99 266.95 10.32 o
-7 13 6 221.60 219.48 9.63 o
-6 13 6 4276.09 4318.06 45.27 o
-5 13 6 1113.21 1123.49 21.31 o
-4 13 6 3141.86 3117.53 40.51 o
-3 13 6 7.34 13.76 5.51 <
-2 13 6 1539.85 1520.41 26.12 o
-1 13 6 8159.27 8028.38 84.80 o
0 13 6 3765.06 3731.43 56.27 o
-13 14 6 1886.71 1851.18 30.92 o
-12 14 6 375.74 355.67 13.76 o
-11 14 6 17.30 16.52 6.19 <
-10 14 6 840.89 821.81 19.26 o
-9 14 6 257.17 255.25 12.38 o
-8 14 6 590.13 572.97 16.51 o
-7 14 6 4114.54 4162.08 50.77 o
-6 14 6 1014.91 1037.61 21.32 o
-5 14 6 1348.30 1394.82 24.75 o
-4 14 6 2499.36 2455.48 35.72 o
-3 14 6 164.27 142.43 9.63 o
-2 14 6 734.40 702.89 17.88 o
-1 14 6 87.57 96.33 8.95 o
0 14 6 18.90 16.52 6.88 <
-14 15 6 35.32 48.17 8.26 o
-13 15 6 145.62 158.25 11.01 o
-12 15 6 1318.10 1308.89 25.44 o
-11 15 6 2.09 2.75 6.19 <
-10 15 6 117.04 108.03 9.63 o
-9 15 6 2437.47 2441.81 43.27 o
-8 15 6 125.63 140.37 11.70 o
-7 15 6 100.97 96.33 10.32 o
-6 15 6 2230.93 2278.01 35.04 o
-5 15 6 62.79 64.68 8.26 o
-4 15 6 43.10 40.60 7.57 o
-3 15 6 2552.45 2576.17 37.77 o
-2 15 6 2.67 4.13 6.19 <
-1 15 6 3.64 4.82 6.19 <
0 15 6 2237.57 2239.45 35.72 o
-15 16 6 134.33 147.93 15.83 o
-14 16 6 377.48 383.18 17.89 o
-13 16 6 2820.99 2815.90 48.75 o
-12 16 6 977.59 941.35 25.44 o
-11 16 6 2476.67 2450.60 43.96 o
-10 16 6 45.93 61.24 9.63 o
-9 16 6 2557.97 2466.95 44.64 o
-8 16 6 158.23 182.33 13.76 o
-7 16 6 14.95 0.69 7.57 <
-6 16 6 5.04 5.51 7.57 <
-5 16 6 194.94 216.04 12.38 o
-4 16 6 1583.36 1643.33 35.74 o
-3 16 6 1.63 4.13 6.88 <
-2 16 6 2367.45 2428.11 37.09 o
-1 16 6 532.08 570.92 26.83 o
-13 17 6 421.93 419.63 18.57 o
-12 17 6 1.91 5.51 8.26 <
-11 17 6 18.99 22.71 8.26 <
-10 17 6 9.43 9.63 8.26 <
-9 17 6 4043.09 4148.16 64.48 o
-8 17 6 461.11 482.90 19.95 o
-7 17 6 2083.38 2129.11 41.91 o
-6 17 6 606.27 629.35 22.01 o
-5 17 6 3853.40 4019.09 63.12 o
-4 17 6 49.71 53.67 10.32 o
0 1 7 21.37 25.46 2.06 o
-1 2 7 3927.04 4091.67 35.65 o
0 2 7 162.19 169.94 4.82 o
-2 3 7 16453.90 16698.10 122.58 o
-1 3 7 9043.23 9034.04 66.17 o
0 3 7 12.74 25.46 2.75 o
-3 4 7 73.77 75.69 4.82 o
-2 4 7 1817.50 1832.19 19.24 o
-1 4 7 4.66 7.57 2.75 <
0 4 7 19.99 28.21 2.75 o
-4 5 7 755.35 750.26 10.32 o
-3 5 7 6915.58 6862.30 53.34 o
-2 5 7 4230.36 4179.82 35.65 o
-1 5 7 182.16 183.70 5.50 o
0 5 7 1.45 2.75 2.75 <
-5 6 7 4969.14 4955.86 43.17 o
-4 6 7 1837.36 1854.39 20.61 o
-3 6 7 9363.65 9177.81 69.63 o
-2 6 7 626.46 622.43 9.63 o
-1 6 7 1574.09 1572.38 16.49 o
0 6 7 506.28 513.14 9.63 o
-6 7 7 6891.70 6822.00 50.64 o
-5 7 7 2890.75 2827.78 26.77 o
-4 7 7 4194.86 4066.63 36.35 o
-3 7 7 2.57 2.75 3.44 <
-2 7 7 6574.07 6510.49 47.91 o
-1 7 7 3539.56 3553.74 30.19 o
0 7 7 820.77 808.73 12.38 o
-7 8 7 1490.37 1472.29 19.25 o
-6 8 7 1639.83 1660.41 19.24 o
-5 8 7 166.58 172.70 6.88 o
-4 8 7 196.24 200.22 7.57 o
-3 8 7 1695.80 1661.00 19.93 o
-2 8 7 3510.06 3467.60 30.19 o
-1 8 7 273.23 286.89 8.94 o
0 8 7 45.51 42.66 5.50 o
-8 9 7 319.49 319.91 10.32 o
-7 9 7 3488.41 3424.69 37.75 o
-6 9 7 1879.43 1884.16 24.74 o
-5 9 7 313.39 299.27 10.32 o
-4 9 7 763.65 762.01 14.44 o
-3 9 7 1141.48 1115.87 17.19 o
-2 9 7 257.03 268.32 9.63 o
-1 9 7 9.05 8.95 4.82 <
0 9 7 214.95 211.22 9.63 o
-9 10 7 286.43 273.13 12.38 o
-8 10 7 4841.28 4801.58 56.22 o
-7 10 7 4290.14 4312.39 51.44 o
-6 10 7 50.12 57.80 5.50 o
-5 10 7 568.25 583.29 12.38 o
-4 10 7 3855.41 3775.15 47.34 o
-3 10 7 5367.79 5171.76 59.63 o
-2 10 7 564.39 559.91 16.51 o
-1 10 7 380.18 391.44 14.45 o
0 10 7 1475.83 1428.38 31.62 o
-10 11 7 7083.68 6769.79 91.72 o
-9 11 7 66.61 66.75 8.26 o
-8 11 7 670.20 673.35 14.44 o
-7 11 7 1025.81 1015.60 17.19 o
-6 11 7 5917.36 6005.61 56.86 o
-5 11 7 799.77 815.65 15.82 o
-4 11 7 1926.54 1958.38 31.61 o
-3 11 7 32.15 48.17 7.57 o
-2 11 7 4405.44 4225.05 63.10 o
-1 11 7 926.34 926.97 25.44 o
0 11 7 812.50 742.05 23.38 o
-11 12 7 971.07 963.38 19.94 o
-10 12 7 175.11 186.46 10.32 o
-9 12 7 91.51 102.53 7.57 o
-8 12 7 103.93 106.65 7.57 o
-7 12 7 873.19 887.12 17.19 o
-6 12 7 1565.46 1580.88 23.37 o
-5 12 7 198.18 192.65 8.94 o
-4 12 7 224.50 214.66 9.63 o
-3 12 7 2175.32 2178.55 30.92 o
-2 12 7 2662.48 2563.72 35.03 o
-1 12 7 35.71 39.22 6.19 o
0 12 7 27.69 26.84 6.19 o
-12 13 7 394.09 420.33 14.45 o
-11 13 7 1051.27 1014.89 21.32 o
-10 13 7 32.21 37.85 6.88 o
-9 13 7 9.73 8.26 5.51 <
-8 13 7 147.84 134.17 8.26 o
-7 13 7 306.66 295.83 11.01 o
-6 13 7 177.58 172.01 8.94 o
-5 13 7 0.23 4.82 5.51 <
-4 13 7 13.87 22.71 6.19 o
-3 13 7 140.80 158.26 9.63 o
-2 13 7 0.07 2.75 5.51 <
-1 13 7 23.58 46.10 6.88 o
0 13 7 47.72 59.87 8.26 o
-13 14 7 5.94 14.45 6.88 <
-12 14 7 2901.02 2849.43 39.82 o
-11 14 7 1033.30 1034.83 22.00 o
-10 14 7 535.48 541.34 16.51 o
-9 14 7 39.62 54.36 7.57 o
-8 14 7 1880.87 1891.75 27.49 o
-7 14 7 2293.13 2352.11 30.91 o
-6 14 7 48.37 50.23 6.88 o
-5 14 7 190.58 186.46 11.01 o
-4 14 7 1666.22 1657.00 28.18 o
-3 14 7 1485.02 1468.20 26.12 o
-2 14 7 22.72 24.77 6.88 o
-1 14 7 59.38 46.79 7.57 o
0 14 7 353.66 372.18 13.76 o
-14 15 7 1258.58 1272.50 28.87 o
-13 15 7 115.10 92.89 8.94 o
-12 15 7 642.35 649.97 17.88 o
-11 15 7 1036.35 998.38 22.00 o
-10 15 7 1580.51 1565.68 28.18 o
-9 15 7 32.27 22.71 7.57 <
-8 15 7 1070.22 1069.87 26.82 o
-7 15 7 1.84 12.39 6.19 <
-6 15 7 1994.84 2037.90 38.48 o
-5 15 7 0.52 6.19 6.19 <
-4 15 7 2401.34 2456.93 36.40 o
-3 15 7 141.51 138.99 10.32 o
-2 15 7 699.79 731.78 18.57 o
-1 15 7 125.65 144.49 10.32 o
-13 16 7 67.54 68.12 8.95 o
-12 16 7 86.65 90.83 10.32 o
-11 16 7 1296.53 1289.65 29.56 o
-10 16 7 1094.52 1170.22 28.19 o
-9 16 7 90.22 89.45 11.01 o
-8 16 7 87.17 87.39 11.01 o
-7 16 7 1860.67 1917.84 38.48 o
-6 16 7 1368.95 1451.12 32.31 o
-5 16 7 9.94 15.83 6.88 <
-4 16 7 18.35 14.45 7.57 <
-3 16 7 878.46 929.04 21.32 o
-11 17 7 87.30 78.44 11.01 o
-10 17 7 37.69 44.73 9.63 o
-9 17 7 4.24 1.38 7.57 <
-8 17 7 2.39 6.19 8.26 <
-7 17 7 36.48 41.98 9.63 o
-6 17 7 45.05 42.66 9.63 o
0 0 8 41103.90 42782.00 667.80 o
0 1 8 227.49 255.94 5.50 o
-1 2 8 135.55 142.43 4.13 o
0 2 8 2173.07 2165.64 19.92 o
-2 3 8 5286.69 5432.36 41.79 o
-1 3 8 5502.65 5620.39 43.15 o
0 3 8 5516.09 5682.19 43.84 o
-3 4 8 197.06 187.14 6.19 o
-2 4 8 24.91 28.21 5.50 o
-1 4 8 203.78 212.60 6.19 o
0 4 8 6240.50 6408.61 48.61 o
-4 5 8 5387.79 5432.50 42.48 o
-3 5 8 1456.42 1450.26 19.25 o
-2 5 8 1266.82 1225.69 16.50 o
-1 5 8 15874.50 16012.70 103.93 o
0 5 8 4095.56 4170.90 34.98 o
-5 6 8 3985.17 3901.89 42.53 o
-4 6 8 5903.45 5904.03 59.59 o
-3 6 8 8.27 13.76 4.13 o
-2 6 8 3352.00 3312.16 28.83 o
-1 6 8 185.99 174.07 6.19 o
0 6 8 500.46 514.53 10.32 o
-6 7 8 4930.55 4843.34 41.82 o
-5 7 8 614.04 606.65 11.01 o
-4 7 8 423.75 410.68 11.01 o
-3 7 8 463.76 440.94 8.94 o
-2 7 8 467.41 470.52 9.63 o
-1 7 8 5183.91 5037.05 42.50 o
0 7 8 563.41 557.84 11.69 o
-7 8 8 119.25 120.41 7.57 o
-6 8 8 558.54 526.89 11.01 o
-5 8 8 2309.09 2349.31 25.42 o
-4 8 8 14236.00 14174.70 118.43 o
-3 8 8 6.35 20.64 5.51 o
-2 8 8 3791.66 3675.80 34.99 o
-1 8 8 7031.40 6979.13 64.34 o
0 8 8 2980.70 3012.83 35.02 o
-8 9 8 261.29 251.12 11.01 o
-7 9 8 3078.17 3028.41 35.01 o
-6 9 8 1733.70 1749.73 24.05 o
-5 9 8 2469.93 2538.66 32.28 o
-4 9 8 305.17 335.05 10.32 o
-3 9 8 0.56 0.69 4.82 <
-2 9 8 409.45 401.06 11.69 o
-1 9 8 3397.43 3347.57 38.44 o
0 9 8 6483.39 6374.30 62.32 o
-9 10 8 862.52 858.93 19.94 o
-8 10 8 112.44 114.91 9.63 o
-7 10 8 2690.98 2559.57 36.40 o
-6 10 8 341.60 321.28 12.38 o
-5 10 8 1505.78 1497.09 26.12 o
-4 10 8 1969.58 1991.31 31.61 o
-3 10 8 2745.05 2685.13 38.46 o
-2 10 8 722.15 715.28 18.57 o
-1 10 8 112.75 135.55 11.01 o
0 10 8 440.21 408.62 17.89 o
-10 11 8 122.82 128.67 11.70 o
-9 11 8 639.49 625.22 17.88 o
-8 11 8 269.94 268.32 12.38 o
-7 11 8 242.81 258.01 10.32 o
-6 11 8 2211.68 2202.55 28.17 o
-5 11 8 2006.87 1975.45 32.29 o
-4 11 8 683.01 711.86 19.26 o
-3 11 8 1363.80 1335.01 26.81 o
-2 11 8 2731.90 2602.73 46.01 o
-1 11 8 372.01 348.79 17.20 o
0 11 8 1641.33 1590.39 35.74 o
-11 12 8 760.19 675.36 23.38 o
-10 12 8 184.76 168.57 13.76 o
-9 12 8 4993.31 4902.41 60.33 o
-8 12 8 842.72 867.88 17.19 o
-7 12 8 1477.74 1480.61 22.68 o
-6 12 8 65.42 81.20 6.88 o
-5 12 8 341.77 346.05 11.70 o
-4 12 8 708.51 692.59 19.95 o
-3 12 8 231.56 239.43 15.14 o
-2 12 8 2000.66 1924.57 39.16 o
-1 12 8 61.99 64.68 11.01 o
0 12 8 2476.07 2382.64 46.02 o
-12 13 8 423.71 399.68 14.45 o
-11 13 8 176.64 165.82 10.32 o
-10 13 8 99.90 96.33 8.95 o
-9 13 8 2624.00 2731.97 38.46 o
-8 13 8 2336.18 2440.64 34.35 o
-7 13 8 2051.78 2118.93 28.86 o
-6 13 8 269.43 276.58 11.70 o
-5 13 8 8185.18 8184.53 84.80 o
-4 13 8 400.68 434.77 13.76 o
-3 13 8 728.84 676.07 22.70 o
-2 13 8 719.01 697.39 24.07 o
-1 13 8 2805.55 2801.56 38.45 o
0 13 8 818.70 802.55 19.26 o
-13 14 8 90.33 94.96 8.95 o
-12 14 8 2092.15 2089.94 32.98 o
-11 14 8 681.14 609.37 17.19 o
-10 14 8 842.89 832.11 19.94 o
-9 14 8 177.03 191.28 11.70 o
-8 14 8 1951.85 1940.40 30.92 o
-7 14 8 11.31 11.70 6.19 <
-6 14 8 1.88 8.26 6.19 <
-5 14 8 17.88 19.96 6.19 o
-4 14 8 7.81 15.83 6.19 <
-3 14 8 1451.87 1497.09 26.12 o
-2 14 8 1.61 3.44 6.19 <
-1 14 8 2962.80 2965.26 40.51 o
0 14 8 269.48 266.25 13.07 o
-13 15 8 273.28 251.80 12.38 o
-12 15 8 183.34 177.51 11.01 o
-11 15 8 373.43 343.97 13.76 o
-10 15 8 1449.48 1403.61 29.56 o
-9 15 8 38.63 53.67 8.95 o
-8 15 8 121.10 100.46 10.32 o
-7 15 8 1119.07 1146.82 23.38 o
-6 15 8 110.01 110.78 9.63 o
-5 15 8 913.86 955.84 21.32 o
-4 15 8 1079.13 1091.16 22.69 o
-3 15 8 16.45 17.20 6.88 <
-2 15 8 705.33 708.40 18.57 o
-11 16 8 4.38 8.95 7.57 <
-10 16 8 503.98 516.59 19.26 o
-9 16 8 494.39 519.34 19.26 o
-8 16 8 1362.05 1409.20 30.93 o
-7 16 8 904.69 962.03 25.44 o
-6 16 8 515.85 536.53 16.51 o
-5 16 8 1292.00 1425.77 31.62 o
0 1 9 1.11 0.00 2.06 <
-1 2 9 2935.97 3014.57 24.03 o
0 2 9 346.91 343.29 6.88 o
-2 3 9 9587.71 9853.40 65.56 o
-1 3 9 6167.01 6330.28 44.51 o
0 3 9 22.52 35.78 3.44 o
-3 4 9 20.61 27.53 4.13 o
-2 4 9 873.34 913.23 12.38 o
-1 4 9 26.09 32.34 4.13 o
0 4 9 73.56 75.00 4.82 o
-4 5 9 572.03 579.85 11.01 o
-3 5 9 5294.28 5257.97 50.03 o
-2 5 9 1961.46 1938.32 20.61 o
-1 5 9 124.34 139.68 6.19 o
0 5 9 138.79 132.11 6.19 o
-5 6 9 2811.46 2854.53 36.39 o
-4 6 9 945.43 973.71 15.82 o
-3 6 9 4982.73 5060.66 57.59 o
-2 6 9 405.26 413.44 9.63 o
-1 6 9 1070.65 1104.26 15.81 o
0 6 9 438.73 445.08 10.32 o
-6 7 9 4550.08 4548.23 41.15 o
-5 7 9 1731.96 1679.63 20.62 o
-4 7 9 2818.90 2809.92 32.96 o
-3 7 9 30.86 29.59 4.13 o
-2 7 9 4361.59 4365.71 39.78 o
-1 7 9 1819.19 1799.10 21.99 o
0 7 9 195.87 207.79 8.26 o
-7 8 9 697.16 698.79 15.13 o
-6 8 9 824.48 835.58 14.44 o
-5 8 9 184.94 174.76 7.57 o
-4 8 9 24.89 33.03 6.19 o
-3 8 9 649.99 636.22 17.20 o
-2 8 9 2512.86 2425.97 27.47 o
-1 8 9 153.68 134.86 8.26 o
0 8 9 70.09 75.00 6.88 o
-8 9 9 418.57 423.07 13.07 o
-7 9 9 1728.52 1710.58 25.43 o
-6 9 9 848.75 884.39 17.19 o
-5 9 9 72.79 61.24 6.88 o
-4 9 9 388.52 407.95 11.69 o
-3 9 9 669.27 629.33 14.44 o
-2 9 9 338.47 364.62 12.38 o
-1 9 9 12.27 6.88 5.51 <
0 9 9 76.54 74.31 7.57 o
-9 10 9 327.94 347.42 13.76 o
-8 10 9 3225.95 3167.41 43.93 o
-7 10 9 3104.96 3086.02 42.57 o
-6 10 9 146.35 156.88 10.32 o
-5 10 9 358.64 354.98 13.76 o
-4 10 9 2568.83 2588.63 38.46 o
-3 10 9 2617.79 2572.73 38.46 o
-2 10 9 349.78 334.35 14.45 o
-1 10 9 129.77 131.42 10.32 o
0 10 9 671.39 621.07 21.32 o
-10 11 9 4848.13 4505.80 69.25 o
-9 11 9 15.99 10.32 6.88 <
-8 11 9 413.06 414.13 15.13 o
-7 11 9 586.38 604.61 17.88 o
-6 11 9 3374.81 3389.42 38.44 o
-5 11 9 641.23 627.97 18.57 o
-4 11 9 1247.43 1287.68 26.81 o
-3 11 9 41.49 52.30 8.95 o
-2 11 9 3483.37 3343.10 55.59 o
-1 11 9 734.70 700.82 23.38 o
0 11 9 645.05 575.00 21.32 o
-11 12 9 430.91 412.06 19.26 o
-10 12 9 333.57 309.58 17.20 o
-9 12 9 50.05 63.31 8.95 o
-8 12 9 9.26 4.13 6.88 <
-7 12 9 889.37 909.79 17.88 o
-6 12 9 1026.14 1049.28 19.25 o
-5 12 9 12.64 24.08 7.57 o
-4 12 9 84.20 96.33 10.32 o
-3 12 9 1394.05 1363.82 32.31 o
-2 12 9 1347.36 1241.50 31.62 o
-1 12 9 71.37 75.00 11.01 o
0 12 9 10.90 17.20 8.95 <
-12 13 9 212.28 196.09 15.14 o
-11 13 9 771.62 779.20 25.45 o
-10 13 9 58.06 67.43 11.01 o
-9 13 9 29.77 31.65 7.57 o
-8 13 9 96.55 105.96 8.26 o
-7 13 9 260.82 243.55 11.01 o
-6 13 9 43.62 47.48 6.88 o
-5 13 9 0.00 2.75 8.26 <
-4 13 9 33.79 19.27 8.95 <
-3 13 9 41.20 33.03 9.63 o
-2 13 9 14.26 10.32 8.26 <
-1 13 9 2.06 8.95 8.26 <
0 13 9 7.13 11.01 8.95 <
-12 14 9 2541.08 2501.27 48.08 o
-11 14 9 547.22 544.78 15.82 o
-10 14 9 393.86 431.33 15.82 o
-9 14 9 105.81 121.10 9.63 o
-8 14 9 1100.73 1122.09 20.63 o
-7 14 9 1496.45 1576.08 24.74 o
-6 14 9 4.37 2.75 6.19 <
-5 14 9 253.38 260.75 11.70 o
-4 14 9 1034.53 977.75 28.19 o
-3 14 9 1222.62 1165.98 30.94 o
-2 14 9 0.31 6.19 8.95 <
-10 15 9 1462.54 1440.02 30.24 o
-9 15 9 39.30 43.35 8.26 o
-8 15 9 985.47 1039.67 25.44 o
-7 15 9 12.62 8.26 6.19 <
-6 15 9 1276.44 1372.85 29.56 o
-5 15 9 20.11 26.84 6.88 o
0 0 10 9853.81 10177.10 167.33 o
0 1 10 2179.18 2190.86 19.92 o
-1 2 10 4356.57 4333.35 33.61 o
0 2 10 40.17 36.47 3.44 o
-2 3 10 662.88 674.04 10.32 o
-1 3 10 119.61 121.79 5.50 o
0 3 10 48.02 35.78 3.44 o
-3 4 10 218.06 218.79 6.88 o
-2 4 10 4342.88 4289.62 33.61 o
-1 4 10 2752.20 2808.69 27.47 o
0 4 10 7708.35 7753.70 61.58 o
-4 5 10 18.24 15.83 4.13 o
-3 5 10 4.65 12.39 3.44 o
-2 5 10 0.09 4.13 4.13 <
-1 5 10 778.09 761.33 13.07 o
0 5 10 5400.58 5373.32 46.61 o
-5 6 10 93.36 95.64 6.88 o
-4 6 10 320.99 342.61 9.63 o
-3 6 10 4108.94 4099.07 37.73 o
-2 6 10 165.46 163.07 7.57 o
-1 6 10 400.13 407.26 10.32 o
0 6 10 2194.66 2163.42 25.42 o
-6 7 10 868.51 865.81 15.13 o
-5 7 10 1363.14 1293.77 18.56 o
-4 7 10 105.04 112.16 8.95 o
-3 7 10 139.77 135.55 6.88 o
-2 7 10 3716.48 3703.62 36.37 o
-1 7 10 658.65 679.55 13.76 o
0 7 10 29.83 20.64 4.82 o
-7 8 10 1626.52 1599.35 24.74 o
-6 8 10 6.35 13.76 4.82 <
-5 8 10 3700.68 3653.55 36.37 o
-4 8 10 1122.73 1166.79 17.88 o
-3 8 10 630.10 610.78 14.44 o
-2 8 10 410.76 399.00 11.01 o
-1 8 10 44.36 59.87 6.88 o
0 8 10 5540.81 5568.56 56.88 o
-8 9 10 419.00 430.64 15.13 o
-7 9 10 421.27 397.62 13.07 o
-6 9 10 318.24 319.91 11.70 o
-5 9 10 5268.50 5244.16 78.82 o
-4 9 10 1398.04 1414.71 22.68 o
-3 9 10 3053.63 3022.94 41.88 o
-2 9 10 41.94 39.22 6.88 o
-1 9 10 4512.85 4391.16 56.24 o
0 9 10 312.84 325.41 12.38 o
-9 10 10 14.93 15.14 6.88 <
-8 10 10 1857.38 1834.74 31.61 o
-7 10 10 421.01 392.11 15.13 o
-6 10 10 262.29 278.64 13.07 o
-5 10 10 254.17 239.43 12.38 o
-4 10 10 208.90 224.30 13.07 o
-3 10 10 111.93 113.53 10.32 o
-2 10 10 522.65 466.37 19.26 o
-1 10 10 702.00 702.90 23.38 o
0 10 10 9.67 20.64 8.95 <
-10 11 10 2981.68 2814.90 50.81 o
-9 11 10 0.09 2.75 6.88 <
-8 11 10 104.36 116.97 10.32 o
-7 11 10 1350.72 1351.49 26.81 o
-6 11 10 300.01 332.30 11.70 o
-5 11 10 314.41 321.28 15.14 o
-4 11 10 602.95 581.21 19.26 o
-3 11 10 0.39 0.69 7.57 <
-2 11 10 451.15 451.26 19.95 o
-1 11 10 747.24 724.88 24.07 o
0 11 10 32.04 25.46 8.95 <
-11 12 10 15.91 8.26 8.95 <
-10 12 10 65.30 59.18 11.01 o
-9 12 10 562.07 572.97 22.70 o
-8 12 10 2169.16 2194.25 36.41 o
-7 12 10 145.24 150.00 9.63 o
-6 12 10 1237.34 1226.47 21.31 o
-5 12 10 1185.91 1226.52 26.81 o
-4 12 10 1645.89 1637.07 31.61 o
-3 12 10 1020.45 1047.90 28.88 o
-2 12 10 417.22 386.61 18.57 o
-1 12 10 312.96 288.95 17.20 o
0 12 10 38.60 60.55 11.01 o
-11 13 10 845.44 831.41 26.13 o
-10 13 10 788.77 776.43 25.45 o
-9 13 10 3888.97 4052.60 65.18 o
-8 13 10 19.02 15.83 6.19 <
-7 13 10 158.60 171.32 10.32 o
-6 13 10 1536.37 1567.09 26.81 o
-5 13 10 1021.09 1032.08 28.19 o
-4 13 10 1258.51 1259.44 31.62 o
-3 13 10 5.85 8.26 8.95 <
-2 13 10 331.21 330.91 17.89 o
-9 14 10 22.65 19.27 7.57 <
-8 14 10 395.04 396.93 13.07 o
-7 14 10 1410.92 1462.76 25.43 o
-6 14 10 257.48 288.96 16.51 o
-5 14 10 407.42 427.20 19.26 o
0 1 11 0.26 13.76 3.44 o
-1 2 11 935.88 942.78 12.38 o
0 2 11 0.53 6.88 3.44 <
-2 3 11 5178.65 5163.79 39.76 o
-1 3 11 2834.66 2808.56 25.41 o
0 3 11 29.40 34.41 4.13 o
-3 4 11 163.44 158.94 6.19 o
-2 4 11 639.55 647.23 11.01 o
-1 4 11 1.40 3.44 3.44 <
0 4 11 13.75 19.96 4.13 o
-4 5 11 203.59 205.72 8.26 o
-3 5 11 2368.10 2329.36 22.67 o
-2 5 11 2026.49 2013.89 20.61 o
-1 5 11 3.01 3.44 4.13 <
0 5 11 26.65 26.84 5.50 o
-5 6 11 1826.35 1869.18 23.36 o
-4 6 11 754.31 722.14 13.76 o
-3 6 11 3852.47 3873.36 32.94 o
-2 6 11 128.08 123.17 6.88 o
-1 6 11 715.19 731.10 14.44 o
0 6 11 386.83 398.32 11.01 o
-6 7 11 2733.41 2681.65 30.22 o
-5 7 11 904.16 911.16 16.50 o
-4 7 11 879.93 855.48 15.82 o
-3 7 11 6.75 0.69 4.13 <
-2 7 11 2548.40 2539.86 28.85 o
-1 7 11 1133.61 1153.71 18.56 o
0 7 11 551.67 569.54 13.76 o
-7 8 11 457.18 471.90 14.45 o
-6 8 11 266.19 273.82 10.32 o
-5 8 11 47.98 41.97 6.19 o
-4 8 11 166.87 182.33 11.70 o
-3 8 11 521.79 528.97 13.07 o
-2 8 11 1310.89 1326.10 22.69 o
-1 8 11 226.86 238.74 11.01 o
0 8 11 6.39 8.26 6.19 <
-8 9 11 160.45 167.20 10.32 o
-7 9 11 1452.93 1403.62 27.50 o
-6 9 11 777.69 784.01 19.94 o
-5 9 11 124.07 114.22 9.63 o
-4 9 11 456.81 489.78 15.82 o
-3 9 11 776.44 780.58 20.63 o
-2 9 11 37.90 36.47 6.88 o
-1 9 11 1.70 -1.38 6.19 <
0 9 11 33.15 26.84 7.57 o
-9 10 11 47.67 55.74 8.95 o
-8 10 11 1572.45 1547.81 29.55 o
-7 10 11 1227.90 1240.23 30.94 o
-6 10 11 30.89 32.34 7.57 o
-5 10 11 245.25 253.19 13.07 o
-4 10 11 1542.00 1550.61 29.56 o
-3 10 11 2245.61 2189.32 36.41 o
-2 10 11 182.10 205.72 13.07 o
-1 10 11 53.32 61.24 11.01 o
0 10 11 700.54 732.47 24.76 o
-10 11 11 2473.31 2402.50 46.02 o
-9 11 11 17.07 14.45 7.57 <
-8 11 11 201.04 194.71 13.07 o
-7 11 11 315.22 336.42 15.14 o
-6 11 11 2314.85 2356.10 31.60 o
-5 11 11 542.49 612.88 19.26 o
-4 11 11 643.95 665.10 20.63 o
-3 11 11 1.47 2.75 7.57 <
-2 11 11 1882.90 1945.28 40.54 o
-1 11 11 329.32 378.38 19.26 o
0 11 11 360.32 350.17 18.57 o
-10 12 11 97.65 93.58 12.39 o
-9 12 11 30.66 33.03 10.32 o
-8 12 11 34.08 30.28 8.26 o
-7 12 11 201.75 185.77 13.07 o
-6 12 11 669.07 685.03 20.63 o
-5 12 11 83.28 110.78 11.01 o
-4 12 11 164.41 158.94 13.07 o
-3 12 11 1063.71 1080.86 29.57 o
-2 12 11 1440.06 1439.36 34.37 o
0 0 12 12932.10 12738.90 211.93 o
0 1 12 218.10 213.98 6.88 o
-1 2 12 60.97 52.98 4.82 o
0 2 12 718.68 685.70 11.69 o
-2 3 12 1633.88 1578.71 17.87 o
-1 3 12 899.87 871.28 13.07 o
0 3 12 1298.35 1269.06 15.81 o
-3 4 12 72.84 66.06 4.82 o
-2 4 12 76.78 75.69 5.50 o
-1 4 12 465.42 491.16 10.32 o
0 4 12 2406.26 2391.75 24.04 o
-4 5 12 1033.31 1066.47 16.50 o
-3 5 12 521.79 514.52 11.01 o
-2 5 12 318.83 315.78 9.63 o
-1 5 12 3707.52 3642.38 32.25 o
0 5 12 1220.15 1192.13 21.31 o
-5 6 12 719.27 701.52 15.82 o
-4 6 12 1073.83 1073.99 16.50 o
-3 6 12 125.80 122.48 6.88 o
-2 6 12 931.14 920.77 16.50 o
-1 6 12 41.14 43.35 6.19 o
0 6 12 0.00 2.06 4.82 <
-6 7 12 1542.51 1547.17 24.74 o
-5 7 12 120.72 130.05 8.26 o
-4 7 12 39.42 30.97 4.82 o
-3 7 12 108.40 89.45 9.63 o
-2 7 12 152.49 142.43 8.26 o
-1 7 12 1187.81 1168.77 19.25 o
0 7 12 183.67 206.41 11.01 o
-7 8 12 0.65 1.38 6.19 <
-6 8 12 203.72 194.02 10.32 o
-5 8 12 937.75 956.51 19.25 o
-4 8 12 3567.66 3647.43 42.55 o
-3 8 12 4.10 6.19 6.19 <
-2 8 12 816.86 806.68 17.88 o
-1 8 12 1692.31 1795.07 28.18 o
0 8 12 1475.64 1501.87 28.87 o
-8 9 12 0.07 8.95 7.57 <
-7 9 12 1029.38 1028.64 23.38 o
-6 9 12 294.05 309.59 14.45 o
-5 9 12 1270.69 1275.93 25.44 o
-4 9 12 122.90 138.30 11.01 o
-3 9 12 95.74 86.70 9.63 o
-2 9 12 108.87 108.03 9.63 o
-1 9 12 1313.73 1321.26 32.31 o
0 9 12 1955.08 1958.23 34.35 o
-9 10 12 214.69 219.48 13.76 o
-8 10 12 1.63 4.13 7.57 <
-7 10 12 958.94 928.30 22.69 o
-6 10 12 16.50 13.07 7.57 <
-5 10 12 380.48 410.70 16.51 o
-4 10 12 729.83 720.07 20.63 o
-3 10 12 752.76 742.07 21.32 o
-2 10 12 109.33 105.96 11.70 o
-1 10 12 30.79 42.66 10.32 o
-7 11 12 0.29 4.82 11.01 <
-6 11 12 645.88 674.73 26.82 o
-5 11 12 647.67 679.54 20.63 o
-4 11 12 94.30 111.47 18.58 o
0 1 13 0.65 -0.69 3.44 <
-1 2 13 889.27 863.72 13.07 o
0 2 13 101.25 92.89 5.50 o
-2 3 13 2543.02 2536.35 25.41 o
-1 3 13 1788.17 1714.56 19.93 o
0 3 13 6.30 6.88 4.13 <
-3 4 13 5.83 6.88 4.13 <
-2 4 13 252.88 265.57 8.26 o
-1 4 13 6.24 8.26 4.13 <
0 4 13 15.14 17.89 4.82 o
-4 5 13 144.06 136.24 6.88 o
-3 5 13 1435.13 1440.06 18.56 o
-2 5 13 544.40 522.08 11.01 o
-1 5 13 47.63 58.49 5.50 o
0 5 13 37.95 33.72 4.82 o
-5 6 13 795.87 825.26 16.51 o
-4 6 13 304.49 303.40 8.94 o
-3 6 13 1613.11 1658.41 21.31 o
-2 6 13 68.80 65.37 6.19 o
-1 6 13 406.92 411.38 12.38 o
0 6 13 77.90 76.38 7.57 o
-6 7 13 1624.83 1643.27 26.12 o
-5 7 13 604.83 605.97 14.44 o
-4 7 13 892.98 915.97 15.13 o
-3 7 13 2.36 -0.69 4.82 <
-2 7 13 1444.02 1520.46 22.68 o
-1 7 13 606.26 631.41 16.51 o
0 7 13 78.68 78.44 8.26 o
-7 8 13 299.89 308.21 13.07 o
-6 8 13 305.90 325.41 14.45 o
-5 8 13 59.18 72.25 8.26 o
-4 8 13 10.37 16.52 6.88 <
-3 8 13 283.33 308.22 12.38 o
-2 8 13 775.64 790.20 17.88 o
-1 8 13 31.39 31.65 7.57 o
0 0 14 2417.57 2241.20 57.70 o
0 1 14 503.26 505.58 11.01 o
-1 2 14 701.03 704.96 12.38 o
0 2 14 27.22 16.51 4.82 o
-2 3 14 231.95 209.16 8.26 o
-1 3 14 201.40 180.26 7.57 o
0 3 14 0.13 2.06 4.13 <
-3 4 14 90.70 105.28 6.88 o
-2 4 14 973.68 1033.49 15.13 o
-1 4 14 422.06 454.02 10.32 o
0 4 14 2370.16 2402.69 25.41 o
-4 5 14 1.72 2.06 4.82 <
-3 5 14 13.07 9.63 4.82 <
-2 5 14 0.09 5.51 4.82 <
-1 5 14 580.14 511.06 13.07 o
#BEGIN Loops that were not found in dictionaries:
loop_
_atom_site_anharm_gc_c_label
_atom_site_anharm_gc_c_111
_atom_site_anharm_gc_c_112
_atom_site_anharm_gc_c_113
_atom_site_anharm_gc_c_122
_atom_site_anharm_gc_c_123
_atom_site_anharm_gc_c_133
_atom_site_anharm_gc_c_222
_atom_site_anharm_gc_c_223
_atom_site_anharm_gc_c_233
_atom_site_anharm_gc_c_333
La1 -0.00012(2) -0.00013(2) 0.00034(2) -0.00001(2) 0.000171(10) 0.0 0.00012(2)
0.00034(2) 0.0 0.00069(10)
La2 -0.00025(3) -0.00032(2) 0.0 -0.00041(2) 0.0 -0.00026(2) -0.00053(3) 0.0
-0.00039(2) 0.0
loop_
_atom_site_anharm_gc_d_label
_atom_site_anharm_gc_d_1111
_atom_site_anharm_gc_d_1112
_atom_site_anharm_gc_d_1113
_atom_site_anharm_gc_d_1122
_atom_site_anharm_gc_d_1123
_atom_site_anharm_gc_d_1133
_atom_site_anharm_gc_d_1222
_atom_site_anharm_gc_d_1223
_atom_site_anharm_gc_d_1233
_atom_site_anharm_gc_d_1333
_atom_site_anharm_gc_d_2222
_atom_site_anharm_gc_d_2223
_atom_site_anharm_gc_d_2233
_atom_site_anharm_gc_d_2333
_atom_site_anharm_gc_d_3333
La1 0.00010(3) 0.000051(13) -0.000013(8) 0.000051(13) -0.000012(8) 0.00004(2)
0.000051(13) 0.000001(8) 0.000020(8) 0.0 0.00010(3) 0.000013(8) 0.00004(2) 0.0
0.00131(11)
La2 0.00008(3) 0.00006(2) 0.0 0.00007(2) 0.0 0.000054(11) 0.00009(2) 0.0
0.000060(8) 0.0 0.00014(3) 0.0 0.000088(11) 0.0 0.00010(4)
#END Loops that were not found in dictionaries
