#------------------------------------------------------------------------------
#$Date: 2015-07-13 21:00:12 +0300 (Mon, 13 Jul 2015) $
#$Revision: 150610 $
#$URL: svn://www.crystallography.net/cod/cif/4/00/23/4002373.cif $
#------------------------------------------------------------------------------
#
# This file is available in the Crystallography Open Database (COD),
# http://www.crystallography.net/
#
# All data on this site have been placed in the public domain by the
# contributors.
#
data_4002373
loop_
_publ_author_name
'Corbel, G.'
'Goutenoire, F.'
'Laligant, Y.'
'Suard, E.'
'Lacorre, P.'
_publ_section_title
;
 Effects of partial substitution of Mo(6+) by Cr(6+) and W(6+) on the
 crystal structure of the fast oxide-ion conductor structural effects of
 W(6+)
;
_journal_name_full               'Chemistry of Materials (1,1989-)'
_journal_page_first              4678
_journal_page_last               4684
_journal_volume                  17
_journal_year                    2005
_chemical_formula_sum            'Cr0.1 La2 Mo1.9 O8.96'
_chemical_name_systematic        'La2 Mo1.9 Cr0.1 O8.96'
_space_group_IT_number           198
_symmetry_space_group_name_Hall  'P 2ac 2ab 3'
_symmetry_space_group_name_H-M   'P 21 3'
_cell_angle_alpha                90
_cell_angle_beta                 90
_cell_angle_gamma                90
_cell_formula_units_Z            2
_cell_length_a                   7.149
_cell_length_b                   7.149
_cell_length_c                   7.149
_cell_volume                     365.373
_citation_journal_id_ASTM        CMATEX
_cod_data_source_file            Corbel_CMATEX_2005_1063.cif
_cod_data_source_block           Cr0.1La2Mo1.9O8.96
_cod_original_cell_volume        365.3726
_cod_database_code               4002373
loop_
_symmetry_equiv_pos_as_xyz
x,y,z
-x+1/2,-y,z+1/2
x+1/2,-y+1/2,-z
-x,y+1/2,-z+1/2
z,x,y
-z+1/2,-x,y+1/2
z+1/2,-x+1/2,-y
-z,x+1/2,-y+1/2
y,z,x
y+1/2,-z+1/2,-x
-y,z+1/2,-x+1/2
-y+1/2,-z,x+1/2
loop_
_atom_site_label
_atom_site_type_symbol
_atom_site_fract_x
_atom_site_fract_y
_atom_site_fract_z
_atom_site_occupancy
_atom_site_U_iso_or_equiv
Cr1 Cr+6 0.1668 0.1668 0.1668 0.05 0.0
La1 La+3 0.8547 0.8547 0.8547 1 0.0
Mo1 Mo+6 0.1668 0.1668 0.1668 0.95 0.0
O1 O-2 0.31 0.31 0.31 1 0.0
O2 O-2 0.975 0.199 0.359 0.73 0.0
O3 O-2 0.841 0.592 0.555 0.43 0.0
