#------------------------------------------------------------------------------
#$Date: 2016-02-13 21:28:24 +0200 (Sat, 13 Feb 2016) $
#$Revision: 176429 $
#$URL: svn://www.crystallography.net/cod/cif/4/00/25/4002592.cif $
#------------------------------------------------------------------------------
#
# This file is available in the Crystallography Open Database (COD),
# http://www.crystallography.net/
#
# All data on this site have been placed in the public domain by the
# contributors.
#
data_4002592
loop_
_publ_author_name
'Ishizawa, Nobuo'
'Asaka, Toru'
'Kudo, Tatsunari'
'Fukuda, Koichiro'
'Yasuhara, Akira'
'Abe, Nobuyuki'
'Arima, Taka-hisa'
_publ_section_title
;
 Structural Evolution of GdBaCo2O5+\d(\d = 7/18) at Elevated Temperatures
;
_journal_name_full               'Chemistry of Materials'
_journal_page_first              141114094038007
_journal_paper_doi               10.1021/cm503132e
_journal_year                    2014
_chemical_formula_sum            'Ba Co2 Gd O5.389'
_chemical_formula_weight         498.7
_chemical_name_systematic        ' ?'
_space_group_IT_number           123
_symmetry_cell_setting           tetragonal
_symmetry_Int_Tables_number      123
_symmetry_space_group_name_Hall  '-P 4 2'
_symmetry_space_group_name_H-M   'P 4/m m m'
_cell_angle_alpha                90
_cell_angle_beta                 90
_cell_angle_gamma                90
_cell_formula_units_Z            9
_cell_length_a                   11.68000(10)
_cell_length_b                   11.68000(10)
_cell_length_c                   7.52920(10)
_cell_measurement_temperature    322
_cell_volume                     1027.152(18)
_diffrn_ambient_temperature      322
_diffrn_measured_fraction_theta_full 1
_diffrn_measured_fraction_theta_max 1
_diffrn_measurement_device       'four-cycle diffractometer'
_diffrn_measurement_device_type  'Bruker CCD'
_diffrn_radiation_monochromator  graphite
_diffrn_radiation_probe          x-ray
_diffrn_radiation_source         'X-ray tube'
_diffrn_radiation_type           'Mo K\a'
_diffrn_radiation_wavelength     0.71073
_diffrn_reflns_av_R_equivalents  0.034
_diffrn_reflns_av_sigmaI/netI    0.0468
_diffrn_reflns_limit_h_max       16
_diffrn_reflns_limit_h_min       -15
_diffrn_reflns_limit_k_max       16
_diffrn_reflns_limit_k_min       -16
_diffrn_reflns_limit_l_max       9
_diffrn_reflns_limit_l_min       -10
_diffrn_reflns_number            6148
_diffrn_reflns_theta_full        30.03
_diffrn_reflns_theta_max         30.03
_diffrn_reflns_theta_min         1.74
_exptl_absorpt_coefficient_mu    29.918
_exptl_absorpt_correction_T_max  0.2118
_exptl_absorpt_correction_T_min  0.1521
_exptl_absorpt_correction_type   multi-scan
_exptl_absorpt_process_details   '(SADABS; Sheldrick, 1996)'
_exptl_crystal_density_diffrn    7.2556
_exptl_crystal_description       sphere
_exptl_crystal_F_000             1954
_exptl_crystal_size_max          0.08
_exptl_crystal_size_mid          0.08
_exptl_crystal_size_min          0.08
_exptl_crystal_size_rad          0.04
_refine_diff_density_max         1.51
_refine_diff_density_min         -1.64
_refine_ls_extinction_coef       440(50)
_refine_ls_extinction_method
'B-C type 1 Gaussian isotropic (Becker & Coppens, 1974)'
_refine_ls_goodness_of_fit_gt    2.08
_refine_ls_goodness_of_fit_ref   1.85
_refine_ls_number_constraints    0
_refine_ls_number_parameters     68
_refine_ls_number_reflns         934
_refine_ls_number_restraints     0
_refine_ls_R_factor_all          0.0434
_refine_ls_R_factor_gt           0.0315
_refine_ls_shift/su_max          0.0077
_refine_ls_shift/su_mean         0.0019
_refine_ls_structure_factor_coef F
_refine_ls_weighting_details     w=1/(\s^2^(F)+0.0001F^2^)
_refine_ls_weighting_scheme      sigma
_refine_ls_wR_factor_gt          0.0627
_refine_ls_wR_factor_ref         0.0660
_reflns_number_gt                682
_reflns_number_total             934
_reflns_threshold_expression     I>3\s(I)
_cod_data_source_file            cm503132e_si_002.cif
_cod_data_source_block           50h
_cod_depositor_comments
;
The following automatic conversions were performed:

'_diffrn_radiation_probe' value 'X-ray' changed to 'x-ray' according
to /home/saulius/struct/CIF-dictionaries/IUCr/cif_core.dic dictionary
named 'cif_core.dic' version 2.4.5 from 2014-11-21.

Automatic conversion script
Id: cif_fix_values 3866 2015-08-17 15:13:47Z robertas 
;
_cod_original_sg_symbol_Hall     '-P 4;-2'
_cod_original_formula_sum        'Ba1 Co2 Gd1 O5.389'
_cod_database_code               4002592
loop_
_space_group_symop_id
_space_group_symop_operation_xyz
1 x,y,z
2 -x,-y,z
3 -y,x,z
4 y,-x,z
5 -x,y,-z
6 x,-y,-z
7 y,x,-z
8 -y,-x,-z
9 -x,-y,-z
10 x,y,-z
11 y,-x,-z
12 -y,x,-z
13 x,-y,z
14 -x,y,z
15 -y,-x,z
16 y,x,z
loop_
_atom_site_label
_atom_site_type_symbol
_atom_site_fract_x
_atom_site_fract_y
_atom_site_fract_z
_atom_site_adp_type
_atom_site_U_iso_or_equiv
_atom_site_site_symmetry_multiplicity
_atom_site_occupancy
_atom_site_calc_flag
Gd1a Gd 0 0.3184(2) 0.5 Uani 0.0144(6) 4 1 d
Gd1b Gd 0.32778(9) 0.32778(9) 0.5 Uani 0.0098(3) 4 1 d
Gd1c Gd 0 0 0.5 Uani 0.0136(4) 1 1 d
Ba1a Ba 0 0.33335(6) 0 Uani 0.0079(3) 4 1 d
Ba1b Ba 0.33546(4) 0.33546(4) 0 Uani 0.0089(3) 4 1 d
Ba1c Ba 0 0 0 Uani 0.0067(4) 1 1 d
Co1a Co 0.16725(6) 0.16725(6) 0.25107(15) Uani 0.0070(5) 8 1 d
Co1b Co 0.16415(10) 0.5 0.25514(18) Uani 0.0076(6) 8 1 d
Co1c Co 0.5 0.5 0.2607(4) Uani 0.0084(7) 2 1 d
O1a O 0.1676(7) 0.5 0 Uiso 0.010(2) 4 1 d
O1b O 0.1741(5) 0.1741(5) 0 Uiso 0.0089(19) 4 1 d
O1c O 0.5 0.5 0 Uiso 0.007(3) 1 1 d
O2a O 0 0.5 0.3070(13) Uiso 0.014(2) 4 1 d
O2b O 0 0.1693(5) 0.2711(10) Uiso 0.0177(16) 8 1 d
O2c O 0.1671(3) 0.3380(3) 0.2988(7) Uiso 0.0095(10) 16 1 d
O2d O 0.3330(5) 0.5 0.3085(9) Uiso 0.0096(13) 8 1 d
O3 O 0.1549(7) 0.1549(7) 0.5 Uiso 0.022(3) 4 0.875 d
loop_
_atom_site_aniso_label
_atom_site_aniso_type_symbol
_atom_site_aniso_U_11
_atom_site_aniso_U_22
_atom_site_aniso_U_33
_atom_site_aniso_U_12
_atom_site_aniso_U_13
_atom_site_aniso_U_23
Gd1a Gd 0.0079(10) 0.0301(12) 0.0051(11) 0 0 0
Gd1b Gd 0.0122(5) 0.0122(5) 0.0051(6) 0.0010(3) 0 0
Gd1c Gd 0.0154(6) 0.0154(6) 0.0102(8) 0 0 0
Ba1a Ba 0.0083(5) 0.0079(5) 0.0075(7) 0 0 0
Ba1b Ba 0.0083(5) 0.0083(5) 0.0100(7) 0.0002(3) 0 0
Ba1c Ba 0.0071(6) 0.0071(6) 0.0059(8) 0 0 0
Co1a Co 0.0079(8) 0.0079(8) 0.0052(12) -0.0003(5) 0.0005(3) 0.0005(3)
Co1b Co 0.0087(9) 0.0072(9) 0.0071(12) 0 -0.0006(5) 0
Co1c Co 0.0085(10) 0.0085(10) 0.0083(15) 0 0 0
loop_
_atom_type_symbol
_atom_type_scat_dispersion_real
_atom_type_scat_dispersion_imag
_atom_type_scat_source
Ba -0.3244 2.2819 'International Tables Vol C tables 4.2.6.8 and 6.1.1.1'
Co 0.3494 0.9721 'International Tables Vol C tables 4.2.6.8 and 6.1.1.1'
Gd -0.1653 3.9035 'International Tables Vol C tables 4.2.6.8 and 6.1.1.1'
O 0.0106 0.0060 'International Tables Vol C tables 4.2.6.8 and 6.1.1.1'
loop_
_geom_angle_atom_site_label_1
_geom_angle_atom_site_label_2
_geom_angle_atom_site_label_3
_geom_angle_site_symmetry_1
_geom_angle_site_symmetry_3
_geom_angle
O2a Gd1a O2a . 5_556 68.8(3)
O2a Gd1a O2b . . 100.9(2)
O2a Gd1a O2b . 5_556 169.7(2)
O2a Gd1a O2c . . 65.08(13)
O2a Gd1a O2c . 5_556 105.60(16)
O2a Gd1a O2c . 10_556 105.60(16)
O2a Gd1a O2c . 14_555 65.08(13)
O2a Gd1a O3 . . 126.79(15)
O2a Gd1a O3 . 3_555 126.79(15)
O2a Gd1a O2b 5_556 . 169.7(2)
O2a Gd1a O2b 5_556 5_556 100.9(2)
O2a Gd1a O2c 5_556 . 105.60(16)
O2a Gd1a O2c 5_556 5_556 65.08(13)
O2a Gd1a O2c 5_556 10_556 65.08(13)
O2a Gd1a O2c 5_556 14_555 105.60(16)
O2a Gd1a O3 5_556 . 126.79(15)
O2a Gd1a O3 5_556 3_555 126.79(15)
O2b Gd1a O2b . 5_556 89.4(2)
O2b Gd1a O2c . . 68.66(13)
O2b Gd1a O2c . 5_556 119.68(13)
O2b Gd1a O2c . 10_556 119.68(13)
O2b Gd1a O2c . 14_555 68.66(13)
O2b Gd1a O3 . . 58.93(14)
O2b Gd1a O3 . 3_555 58.93(14)
O2b Gd1a O2c 5_556 . 119.68(13)
O2b Gd1a O2c 5_556 5_556 68.66(13)
O2b Gd1a O2c 5_556 10_556 68.66(13)
O2b Gd1a O2c 5_556 14_555 119.68(13)
O2b Gd1a O3 5_556 . 58.93(14)
O2b Gd1a O3 5_556 3_555 58.93(14)
O2c Gd1a O2c . 5_556 169.41(17)
O2c Gd1a O2c . 10_556 75.28(16)
O2c Gd1a O2c . 14_555 103.71(16)
O2c Gd1a O3 . . 61.72(16)
O2c Gd1a O3 . 3_555 127.44(16)
O2c Gd1a O2c 5_556 10_556 103.71(16)
O2c Gd1a O2c 5_556 14_555 75.28(16)
O2c Gd1a O3 5_556 . 127.44(16)
O2c Gd1a O3 5_556 3_555 61.72(16)
O2c Gd1a O2c 10_556 14_555 169.41(17)
O2c Gd1a O3 10_556 . 61.72(16)
O2c Gd1a O3 10_556 3_555 127.44(16)
O2c Gd1a O3 14_555 . 127.44(16)
O2c Gd1a O3 14_555 3_555 61.72(16)
O3 Gd1a O3 . 3_555 86.9(3)
O2c Gd1b O2c . 7_556 118.06(15)
O2c Gd1b O2c . 10_556 77.70(16)
O2c Gd1b O2c . 16_555 71.54(14)
O2c Gd1b O2d . . 67.27(17)
O2c Gd1b O2d . 3_655 105.36(17)
O2c Gd1b O2d . 6_566 110.14(17)
O2c Gd1b O2d . 7_556 174.63(17)
O2c Gd1b O2c 7_556 10_556 71.54(14)
O2c Gd1b O2c 7_556 16_555 77.70(16)
O2c Gd1b O2d 7_556 . 174.63(17)
O2c Gd1b O2d 7_556 3_655 110.14(17)
O2c Gd1b O2d 7_556 6_566 105.36(17)
O2c Gd1b O2d 7_556 7_556 67.27(17)
O2c Gd1b O2c 10_556 16_555 118.06(15)
O2c Gd1b O2d 10_556 . 110.14(17)
O2c Gd1b O2d 10_556 3_655 174.63(17)
O2c Gd1b O2d 10_556 6_566 67.27(17)
O2c Gd1b O2d 10_556 7_556 105.36(17)
O2c Gd1b O2d 16_555 . 105.36(17)
O2c Gd1b O2d 16_555 3_655 67.27(17)
O2c Gd1b O2d 16_555 6_566 174.63(17)
O2c Gd1b O2d 16_555 7_556 110.14(17)
O2d Gd1b O2d . 3_655 67.71(19)
O2d Gd1b O2d . 6_566 71.24(18)
O2d Gd1b O2d . 7_556 107.41(19)
O2d Gd1b O2d 3_655 6_566 107.41(19)
O2d Gd1b O2d 3_655 7_556 71.24(18)
O2d Gd1b O2d 6_566 7_556 67.71(19)
O2b Gd1c O2b . 2_555 97.8(2)
O2b Gd1c O2b . 3_555 64.42(12)
O2b Gd1c O2b . 4_555 64.42(12)
O2b Gd1c O2b . 5_556 82.2(2)
O2b Gd1c O2b . 6_556 180.0(5)
O2b Gd1c O2b . 7_556 115.58(12)
O2b Gd1c O2b . 8_556 115.58(12)
O2b Gd1c O3 . . 57.79(14)
O2b Gd1c O3 . 2_555 122.21(14)
O2b Gd1c O3 . 3_555 57.79(14)
O2b Gd1c O3 . 4_555 122.21(14)
O2b Gd1c O2b 2_555 3_555 64.42(12)
O2b Gd1c O2b 2_555 4_555 64.42(12)
O2b Gd1c O2b 2_555 5_556 180.0(5)
O2b Gd1c O2b 2_555 6_556 82.2(2)
O2b Gd1c O2b 2_555 7_556 115.58(12)
O2b Gd1c O2b 2_555 8_556 115.58(12)
O2b Gd1c O3 2_555 . 122.21(14)
O2b Gd1c O3 2_555 2_555 57.79(14)
O2b Gd1c O3 2_555 3_555 122.21(14)
O2b Gd1c O3 2_555 4_555 57.79(14)
O2b Gd1c O2b 3_555 4_555 97.8(2)
O2b Gd1c O2b 3_555 5_556 115.58(12)
O2b Gd1c O2b 3_555 6_556 115.58(12)
O2b Gd1c O2b 3_555 7_556 180.0(5)
O2b Gd1c O2b 3_555 8_556 82.2(2)
O2b Gd1c O3 3_555 . 122.21(14)
O2b Gd1c O3 3_555 2_555 57.79(14)
O2b Gd1c O3 3_555 3_555 57.79(14)
O2b Gd1c O3 3_555 4_555 122.21(14)
O2b Gd1c O2b 4_555 5_556 115.58(12)
O2b Gd1c O2b 4_555 6_556 115.58(12)
O2b Gd1c O2b 4_555 7_556 82.2(2)
O2b Gd1c O2b 4_555 8_556 180.0(5)
O2b Gd1c O3 4_555 . 57.79(14)
O2b Gd1c O3 4_555 2_555 122.21(14)
O2b Gd1c O3 4_555 3_555 122.21(14)
O2b Gd1c O3 4_555 4_555 57.79(14)
O2b Gd1c O2b 5_556 6_556 97.8(2)
O2b Gd1c O2b 5_556 7_556 64.42(12)
O2b Gd1c O2b 5_556 8_556 64.42(12)
O2b Gd1c O3 5_556 . 57.79(14)
O2b Gd1c O3 5_556 2_555 122.21(14)
O2b Gd1c O3 5_556 3_555 57.79(14)
O2b Gd1c O3 5_556 4_555 122.21(14)
O2b Gd1c O2b 6_556 7_556 64.42(12)
O2b Gd1c O2b 6_556 8_556 64.42(12)
O2b Gd1c O3 6_556 . 122.21(14)
O2b Gd1c O3 6_556 2_555 57.79(14)
O2b Gd1c O3 6_556 3_555 122.21(14)
O2b Gd1c O3 6_556 4_555 57.79(14)
O2b Gd1c O2b 7_556 8_556 97.8(2)
O2b Gd1c O3 7_556 . 57.79(14)
O2b Gd1c O3 7_556 2_555 122.21(14)
O2b Gd1c O3 7_556 3_555 122.21(14)
O2b Gd1c O3 7_556 4_555 57.79(14)
O2b Gd1c O3 8_556 . 122.21(14)
O2b Gd1c O3 8_556 2_555 57.79(14)
O2b Gd1c O3 8_556 3_555 57.79(14)
O2b Gd1c O3 8_556 4_555 122.21(14)
O3 Gd1c O3 . 2_555 180.0(5)
O3 Gd1c O3 . 3_555 90.0(3)
O3 Gd1c O3 . 4_555 90.0(3)
O3 Gd1c O3 2_555 3_555 90.0(3)
O3 Gd1c O3 2_555 4_555 90.0(3)
O3 Gd1c O3 3_555 4_555 180.0(5)
O1a Ba1a O1a . 2_565 90.34(16)
O1a Ba1a O1b . . 87.26(16)
O1a Ba1a O1b . 3_555 177.61(16)
O1a Ba1a O2a . . 62.99(9)
O1a Ba1a O2a . 5_555 62.99(9)
O1a Ba1a O2b . . 118.85(10)
O1a Ba1a O2b . 5_555 118.85(10)
O1a Ba1a O2c . . 61.47(10)
O1a Ba1a O2c . 5_555 116.85(10)
O1a Ba1a O2c . 10_555 61.47(10)
O1a Ba1a O2c . 14_555 116.85(10)
O1a Ba1a O1b 2_565 . 177.61(16)
O1a Ba1a O1b 2_565 3_555 87.26(16)
O1a Ba1a O2a 2_565 . 62.99(9)
O1a Ba1a O2a 2_565 5_555 62.99(9)
O1a Ba1a O2b 2_565 . 118.85(10)
O1a Ba1a O2b 2_565 5_555 118.85(10)
O1a Ba1a O2c 2_565 . 116.85(10)
O1a Ba1a O2c 2_565 5_555 61.47(10)
O1a Ba1a O2c 2_565 10_555 116.85(10)
O1a Ba1a O2c 2_565 14_555 61.47(10)
O1b Ba1a O1b . 3_555 95.13(17)
O1b Ba1a O2a . . 115.76(9)
O1b Ba1a O2a . 5_555 115.76(9)
O1b Ba1a O2b . . 62.49(10)
O1b Ba1a O2b . 5_555 62.49(10)
O1b Ba1a O2c . . 61.89(10)
O1b Ba1a O2c . 5_555 119.73(10)
O1b Ba1a O2c . 10_555 61.89(10)
O1b Ba1a O2c . 14_555 119.73(10)
O1b Ba1a O2a 3_555 . 115.76(9)
O1b Ba1a O2a 3_555 5_555 115.76(9)
O1b Ba1a O2b 3_555 . 62.49(10)
O1b Ba1a O2b 3_555 5_555 62.49(10)
O1b Ba1a O2c 3_555 . 119.73(10)
O1b Ba1a O2c 3_555 5_555 61.89(10)
O1b Ba1a O2c 3_555 10_555 119.73(10)
O1b Ba1a O2c 3_555 14_555 61.89(10)
O2a Ba1a O2a . 5_555 99.80(17)
O2a Ba1a O2b . . 83.29(18)
O2a Ba1a O2b . 5_555 176.91(18)
O2a Ba1a O2c . . 53.88(11)
O2a Ba1a O2c . 5_555 124.47(11)
O2a Ba1a O2c . 10_555 124.47(11)
O2a Ba1a O2c . 14_555 53.88(11)
O2a Ba1a O2b 5_555 . 176.91(18)
O2a Ba1a O2b 5_555 5_555 83.29(18)
O2a Ba1a O2c 5_555 . 124.47(11)
O2a Ba1a O2c 5_555 5_555 53.88(11)
O2a Ba1a O2c 5_555 10_555 53.88(11)
O2a Ba1a O2c 5_555 14_555 124.47(11)
O2b Ba1a O2b . 5_555 93.6(2)
O2b Ba1a O2c . . 57.45(12)
O2b Ba1a O2c . 5_555 124.28(12)
O2b Ba1a O2c . 10_555 124.28(12)
O2b Ba1a O2c . 14_555 57.45(12)
O2b Ba1a O2c 5_555 . 124.28(12)
O2b Ba1a O2c 5_555 5_555 57.45(12)
O2b Ba1a O2c 5_555 10_555 57.45(12)
O2b Ba1a O2c 5_555 14_555 124.28(12)
O2c Ba1a O2c . 5_555 177.90(11)
O2c Ba1a O2c . 10_555 98.10(12)
O2c Ba1a O2c . 14_555 81.86(12)
O2c Ba1a O2c 5_555 10_555 81.86(12)
O2c Ba1a O2c 5_555 14_555 98.10(12)
O2c Ba1a O2c 10_555 14_555 177.90(11)
O1a Ba1b O1a . 3_655 178.87(16)
O1a Ba1b O1b . . 89.44(17)
O1a Ba1b O1c . . 90.56(12)
O1a Ba1b O2c . . 61.51(10)
O1a Ba1b O2c . 7_555 117.90(10)
O1a Ba1b O2c . 10_555 61.51(10)
O1a Ba1b O2c . 16_555 117.90(10)
O1a Ba1b O2d . . 63.06(12)
O1a Ba1b O2d . 3_655 117.50(12)
O1a Ba1b O2d . 6_565 63.06(12)
O1a Ba1b O2d . 7_555 117.50(12)
O1a Ba1b O1b 3_655 . 89.44(17)
O1a Ba1b O1c 3_655 . 90.56(12)
O1a Ba1b O2c 3_655 . 117.90(10)
O1a Ba1b O2c 3_655 7_555 61.51(10)
O1a Ba1b O2c 3_655 10_555 117.90(10)
O1a Ba1b O2c 3_655 16_555 61.51(10)
O1a Ba1b O2d 3_655 . 117.50(12)
O1a Ba1b O2d 3_655 3_655 63.06(12)
O1a Ba1b O2d 3_655 6_565 117.50(12)
O1a Ba1b O2d 3_655 7_555 63.06(12)
O1b Ba1b O1c . . 180.0(5)
O1b Ba1b O2c . . 62.72(10)
O1b Ba1b O2c . 7_555 62.72(10)
O1b Ba1b O2c . 10_555 62.72(10)
O1b Ba1b O2c . 16_555 62.72(10)
O1b Ba1b O2d . . 116.36(12)
O1b Ba1b O2d . 3_655 116.36(12)
O1b Ba1b O2d . 6_565 116.36(12)
O1b Ba1b O2d . 7_555 116.36(12)
O1c Ba1b O2c . . 117.28(8)
O1c Ba1b O2c . 7_555 117.28(8)
O1c Ba1b O2c . 10_555 117.28(8)
O1c Ba1b O2c . 16_555 117.28(8)
O1c Ba1b O2d . . 63.64(10)
O1c Ba1b O2d . 3_655 63.64(10)
O1c Ba1b O2d . 6_565 63.64(10)
O1c Ba1b O2d . 7_555 63.64(10)
O2c Ba1b O2c . 7_555 125.44(11)
O2c Ba1b O2c . 10_555 97.66(12)
O2c Ba1b O2c . 16_555 56.40(11)
O2c Ba1b O2d . . 53.66(13)
O2c Ba1b O2d . 3_655 80.78(12)
O2c Ba1b O2d . 6_565 124.56(13)
O2c Ba1b O2d . 7_555 178.44(12)
O2c Ba1b O2c 7_555 10_555 56.40(11)
O2c Ba1b O2c 7_555 16_555 97.66(12)
O2c Ba1b O2d 7_555 . 178.44(12)
O2c Ba1b O2d 7_555 3_655 124.56(13)
O2c Ba1b O2d 7_555 6_565 80.78(12)
O2c Ba1b O2d 7_555 7_555 53.66(13)
O2c Ba1b O2c 10_555 16_555 125.44(11)
O2c Ba1b O2d 10_555 . 124.56(13)
O2c Ba1b O2d 10_555 3_655 178.44(12)
O2c Ba1b O2d 10_555 6_565 53.66(13)
O2c Ba1b O2d 10_555 7_555 80.78(12)
O2c Ba1b O2d 16_555 . 80.78(12)
O2c Ba1b O2d 16_555 3_655 53.66(13)
O2c Ba1b O2d 16_555 6_565 178.44(12)
O2c Ba1b O2d 16_555 7_555 124.56(13)
O2d Ba1b O2d . 3_655 54.45(14)
O2d Ba1b O2d . 6_565 100.78(11)
O2d Ba1b O2d . 7_555 127.27(14)
O2d Ba1b O2d 3_655 6_565 127.27(14)
O2d Ba1b O2d 3_655 7_555 100.78(11)
O2d Ba1b O2d 6_565 7_555 54.45(14)
O1b Ba1c O1b . 2_555 180.0(5)
O1b Ba1c O1b . 3_555 90.00(16)
O1b Ba1c O1b . 4_555 90.00(16)
O1b Ba1c O2b . . 60.53(10)
O1b Ba1c O2b . 2_555 119.47(10)
O1b Ba1c O2b . 3_555 119.47(10)
O1b Ba1c O2b . 4_555 60.53(10)
O1b Ba1c O2b . 5_555 60.53(10)
O1b Ba1c O2b . 6_555 119.47(10)
O1b Ba1c O2b . 7_555 60.53(10)
O1b Ba1c O2b . 8_555 119.47(10)
O1b Ba1c O1b 2_555 3_555 90.00(16)
O1b Ba1c O1b 2_555 4_555 90.00(16)
O1b Ba1c O2b 2_555 . 119.47(10)
O1b Ba1c O2b 2_555 2_555 60.53(10)
O1b Ba1c O2b 2_555 3_555 60.53(10)
O1b Ba1c O2b 2_555 4_555 119.47(10)
O1b Ba1c O2b 2_555 5_555 119.47(10)
O1b Ba1c O2b 2_555 6_555 60.53(10)
O1b Ba1c O2b 2_555 7_555 119.47(10)
O1b Ba1c O2b 2_555 8_555 60.53(10)
O1b Ba1c O1b 3_555 4_555 180.0(5)
O1b Ba1c O2b 3_555 . 60.53(10)
O1b Ba1c O2b 3_555 2_555 119.47(10)
O1b Ba1c O2b 3_555 3_555 60.53(10)
O1b Ba1c O2b 3_555 4_555 119.47(10)
O1b Ba1c O2b 3_555 5_555 60.53(10)
O1b Ba1c O2b 3_555 6_555 119.47(10)
O1b Ba1c O2b 3_555 7_555 119.47(10)
O1b Ba1c O2b 3_555 8_555 60.53(10)
O1b Ba1c O2b 4_555 . 119.47(10)
O1b Ba1c O2b 4_555 2_555 60.53(10)
O1b Ba1c O2b 4_555 3_555 119.47(10)
O1b Ba1c O2b 4_555 4_555 60.53(10)
O1b Ba1c O2b 4_555 5_555 119.47(10)
O1b Ba1c O2b 4_555 6_555 60.53(10)
O1b Ba1c O2b 4_555 7_555 60.53(10)
O1b Ba1c O2b 4_555 8_555 119.47(10)
O2b Ba1c O2b . 2_555 88.17(19)
O2b Ba1c O2b . 3_555 58.94(11)
O2b Ba1c O2b . 4_555 58.94(11)
O2b Ba1c O2b . 5_555 91.83(19)
O2b Ba1c O2b . 6_555 180.0(5)
O2b Ba1c O2b . 7_555 121.06(11)
O2b Ba1c O2b . 8_555 121.06(11)
O2b Ba1c O2b 2_555 3_555 58.94(11)
O2b Ba1c O2b 2_555 4_555 58.94(11)
O2b Ba1c O2b 2_555 5_555 180.0(5)
O2b Ba1c O2b 2_555 6_555 91.83(19)
O2b Ba1c O2b 2_555 7_555 121.06(11)
O2b Ba1c O2b 2_555 8_555 121.06(11)
O2b Ba1c O2b 3_555 4_555 88.17(19)
O2b Ba1c O2b 3_555 5_555 121.06(11)
O2b Ba1c O2b 3_555 6_555 121.06(11)
O2b Ba1c O2b 3_555 7_555 180.0(5)
O2b Ba1c O2b 3_555 8_555 91.83(19)
O2b Ba1c O2b 4_555 5_555 121.06(11)
O2b Ba1c O2b 4_555 6_555 121.06(11)
O2b Ba1c O2b 4_555 7_555 91.83(19)
O2b Ba1c O2b 4_555 8_555 180.0(5)
O2b Ba1c O2b 5_555 6_555 88.17(19)
O2b Ba1c O2b 5_555 7_555 58.94(11)
O2b Ba1c O2b 5_555 8_555 58.94(11)
O2b Ba1c O2b 6_555 7_555 58.94(11)
O2b Ba1c O2b 6_555 8_555 58.94(11)
O2b Ba1c O2b 7_555 8_555 88.17(19)
O1b Co1a O2b . . 96.8(3)
O1b Co1a O2b . 4_555 96.8(3)
O1b Co1a O2c . . 97.8(2)
O1b Co1a O2c . 16_555 97.8(2)
O1b Co1a O3 . . 177.2(3)
O2b Co1a O2b . 4_555 91.0(3)
O2b Co1a O2c . . 88.5(2)
O2b Co1a O2c . 16_555 165.4(3)
O2b Co1a O3 . . 81.3(3)
O2b Co1a O2c 4_555 . 165.4(3)
O2b Co1a O2c 4_555 16_555 88.5(2)
O2b Co1a O3 4_555 . 81.3(3)
O2c Co1a O2c . 16_555 88.33(16)
O2c Co1a O3 . . 84.2(3)
O2c Co1a O3 16_555 . 84.2(3)
O1a Co1b O2a . . 102.7(4)
O1a Co1b O2c . . 99.82(16)
O1a Co1b O2c . 13_565 99.82(16)
O1a Co1b O2d . . 100.3(3)
O2a Co1b O2c . . 89.04(13)
O2a Co1b O2c . 13_565 89.04(13)
O2a Co1b O2d . . 157.0(3)
O2c Co1b O2c . 13_565 160.2(2)
O2c Co1b O2d . . 87.05(13)
O2c Co1b O2d 13_565 . 87.05(13)
O1c Co1c O2d . . 100.5(2)
O1c Co1c O2d . 2_665 100.5(2)
O1c Co1c O2d . 3_655 100.5(2)
O1c Co1c O2d . 4_565 100.5(2)
O2d Co1c O2d . 2_665 159.1(3)
O2d Co1c O2d . 3_655 88.11(5)
O2d Co1c O2d . 4_565 88.11(5)
O2d Co1c O2d 2_665 3_655 88.11(5)
O2d Co1c O2d 2_665 4_565 88.11(5)
O2d Co1c O2d 3_655 4_565 159.1(3)
loop_
_geom_bond_atom_site_label_1
_geom_bond_atom_site_label_2
_geom_bond_site_symmetry_2
_geom_bond_distance
Gd1a O2a . 2.571(6)
Gd1a O2a 5_556 2.571(6)
Gd1a O2b . 2.450(7)
Gd1a O2b 5_556 2.450(7)
Gd1a O2c . 2.481(4)
Gd1a O2c 5_556 2.481(4)
Gd1a O2c 10_556 2.481(4)
Gd1a O2c 14_555 2.481(4)
Gd1a O3 . 2.631(8)
Gd1a O3 3_555 2.631(8)
Gd1b O2c . 2.415(5)
Gd1b O2c 7_556 2.415(5)
Gd1b O2c 10_556 2.415(5)
Gd1b O2c 16_555 2.415(5)
Gd1b O2d . 2.476(4)
Gd1b O2d 3_655 2.476(4)
Gd1b O2d 6_566 2.476(4)
Gd1b O2d 7_556 2.476(4)
Gd1c O2b . 2.623(7)
Gd1c O2b 2_555 2.623(7)
Gd1c O2b 3_555 2.623(7)
Gd1c O2b 4_555 2.623(7)
Gd1c O2b 5_556 2.623(7)
Gd1c O2b 6_556 2.623(7)
Gd1c O2b 7_556 2.623(7)
Gd1c O2b 8_556 2.623(7)
Gd1c O3 . 2.559(8)
Gd1c O3 2_555 2.559(8)
Gd1c O3 3_555 2.559(8)
Gd1c O3 4_555 2.559(8)
Ba1a O1a . 2.761(6)
Ba1a O1a 2_565 2.761(6)
Ba1a O1b . 2.756(6)
Ba1a O1b 3_555 2.756(6)
Ba1a O2a . 3.022(7)
Ba1a O2a 5_555 3.022(7)
Ba1a O2b . 2.800(7)
Ba1a O2b 5_555 2.800(7)
Ba1a O2c . 2.978(5)
Ba1a O2c 5_555 2.978(5)
Ba1a O2c 10_555 2.978(5)
Ba1a O2c 14_555 2.978(5)
Ba1b O1a . 2.745(6)
Ba1b O1a 3_655 2.745(6)
Ba1b O1b . 2.665(6)
Ba1b O1c . 2.7179(5)
Ba1b O2c . 2.988(5)
Ba1b O2c 7_555 2.988(5)
Ba1b O2c 10_555 2.988(5)
Ba1b O2c 16_555 2.988(5)
Ba1b O2d . 3.015(5)
Ba1b O2d 3_655 3.015(5)
Ba1b O2d 6_565 3.015(5)
Ba1b O2d 7_555 3.015(5)
Ba1c O1b . 2.876(6)
Ba1c O1b 2_555 2.876(6)
Ba1c O1b 3_555 2.876(6)
Ba1c O1b 4_555 2.876(6)
Ba1c O2b . 2.842(7)
Ba1c O2b 2_555 2.842(7)
Ba1c O2b 3_555 2.842(7)
Ba1c O2b 4_555 2.842(7)
Ba1c O2b 5_555 2.842(7)
Ba1c O2b 6_555 2.842(7)
Ba1c O2b 7_555 2.842(7)
Ba1c O2b 8_555 2.842(7)
Co1a O1b . 1.8938(12)
Co1a O2b . 1.9594(9)
Co1a O2b 4_555 1.9594(9)
Co1a O2c . 2.027(4)
Co1a O2c 16_555 2.027(4)
Co1a O3 . 1.8853(14)
Co1b O1a . 1.9214(14)
Co1b O2a . 1.957(2)
Co1b O2c . 1.921(4)
Co1b O2c 13_565 1.921(4)
Co1b O2d . 2.013(6)
Co1c O1c . 1.963(3)
Co1c O2d . 1.983(6)
Co1c O2d 2_665 1.983(6)
Co1c O2d 3_655 1.983(6)
Co1c O2d 4_565 1.983(6)
#BEGIN Loops that were not found in dictionaries:
loop_
_jana_atom_site_adp_c_label
_jana_atom_site_adp_c_type_symbol
_jana_atom_site_adp_c_111
_jana_atom_site_adp_c_112
_jana_atom_site_adp_c_113
_jana_atom_site_adp_c_122
_jana_atom_site_adp_c_123
_jana_atom_site_adp_c_133
_jana_atom_site_adp_c_222
_jana_atom_site_adp_c_223
_jana_atom_site_adp_c_233
_jana_atom_site_adp_c_333
Gd1a Gd 0 0.00092(11) 0 0 0 0 0.0054(3) 0 0.0001(2) 0
Gd1b Gd 0.00058(11) 0.00021(7) 0 0.00021(7) 0 0.00022(13) 0.00058(11) 0
0.00022(13) 0
loop_
_jana_atom_site_adp_d_label
_jana_atom_site_adp_d_type_symbol
_jana_atom_site_adp_d_1111
_jana_atom_site_adp_d_1112
_jana_atom_site_adp_d_1113
_jana_atom_site_adp_d_1122
_jana_atom_site_adp_d_1123
_jana_atom_site_adp_d_1133
_jana_atom_site_adp_d_1222
_jana_atom_site_adp_d_1223
_jana_atom_site_adp_d_1233
_jana_atom_site_adp_d_1333
_jana_atom_site_adp_d_2222
_jana_atom_site_adp_d_2223
_jana_atom_site_adp_d_2233
_jana_atom_site_adp_d_2333
_jana_atom_site_adp_d_3333
Gd1a Gd -0.00010(10) 0 0 -0.00001(5) 0 -0.00011(9) 0 0 0 0 0.00073(18) 0
-0.00014(12) 0 0.0000(8)
#END Loops that were not found in dictionaries
