#------------------------------------------------------------------------------
#$Date: 2018-07-21 22:54:28 +0300 (Sat, 21 Jul 2018) $
#$Revision: 209177 $
#$URL: file:///home/coder/svn-repositories/cod/cif/4/00/25/4002590.cif $
#------------------------------------------------------------------------------
#
# This file is available in the Crystallography Open Database (COD),
# http://www.crystallography.net/
#
# All data on this site have been placed in the public domain by the
# contributors.
#
data_4002590
loop_
_publ_author_name
'Abakumov, Artem M.'
'Tsirlin, Alexander A.'
'Bakaimi, Ioanna'
'Van Tendeloo, Gustaaf'
'Lappas, Alexandros'
_publ_section_title
;
 Multiple Twinning As a Structure Directing Mechanism in Layered
 Rock-Salt-Type Oxides: NaMnO2Polymorphism, Redox Potentials, and
 Magnetism
;
_journal_name_full               'Chemistry of Materials'
_journal_page_first              140509152558002
_journal_paper_doi               10.1021/cm5011696
_journal_year                    2014
_chemical_formula_sum            'Mn Na O2'
_chemical_formula_weight         109.9
_space_group_crystal_system      monoclinic
_space_group_IT_number           12
_space_group_name_Hall           '-I 2y'
_space_group_name_H-M_alt        'I 1 2/m 1'
_space_group_ssg_name            X2/m(\a0\g)00
_cell_angle_alpha                90
_cell_angle_beta                 91.4521
_cell_angle_gamma                90
_cell_formula_units_Z            2
_cell_length_a                   3.15603(9)
_cell_length_b                   2.85523(10)
_cell_length_c                   4.7799(2)
_cell_measurement_temperature    293
_cell_modulation_dimension       1
_cell_volume                     43.059(3)
_diffrn_ambient_temperature      293
_diffrn_radiation_probe          neutron
_diffrn_radiation_wavelength     2.0787
_exptl_crystal_density_diffrn    4.2379
_exptl_crystal_F_000             52
_pd_instr_location               ' ?'
_pd_meas_2theta_range_inc        0.05
_pd_meas_2theta_range_max        166.450
_pd_meas_2theta_range_min        3.000
_pd_meas_number_of_points        3270
_pd_proc_2theta_range_inc        0.05
_pd_proc_2theta_range_max        151.85
_pd_proc_2theta_range_min        14.75
_pd_proc_ls_background_function  '8 Legendre polynoms'
_pd_proc_ls_pref_orient_corr     none
_pd_proc_ls_profile_function     Pseudo-Voigt
_pd_proc_ls_prof_R_factor        0.0577
_pd_proc_ls_prof_wR_expected     0.0520
_pd_proc_ls_prof_wR_factor       0.0719
_refine_ls_goodness_of_fit_all   1.38
_refine_ls_number_constraints    0
_refine_ls_number_parameters     23
_refine_ls_number_restraints     0
_refine_ls_R_factor_all          0.0228
_refine_ls_R_factor_gt           0.0214
_refine_ls_shift/su_max          0.4475
_refine_ls_shift/su_mean         0.1262
_refine_ls_weighting_scheme      sigma
_refine_ls_wR_factor_all         0.0222
_refine_ls_wR_factor_gt          0.0221
_cod_data_source_file            cm5011696_si_002.cif
_cod_data_source_block           I
_cod_depositor_comments
;
 Updating space group information.

 Antanas Vaitkus,
 2018-07-22
;
_cod_original_formula_sum        'Mn1 Na1 O2'
_cod_database_code               4002590
_jana_cell_commen_supercell_matrix_1_1 2
_jana_cell_commen_supercell_matrix_1_2 0
_jana_cell_commen_supercell_matrix_1_3 0
_jana_cell_commen_supercell_matrix_2_1 0
_jana_cell_commen_supercell_matrix_2_2 1
_jana_cell_commen_supercell_matrix_2_3 0
_jana_cell_commen_supercell_matrix_3_1 0
_jana_cell_commen_supercell_matrix_3_2 0
_jana_cell_commen_supercell_matrix_3_3 2
_jana_cell_commen_t_section_1    0
loop_
_space_group_symop_id
_space_group_symop_operation_xyz
1 x,y,z
2 -x,y,-z
3 x+0.5,y+0.5,z+0.5
4 -x+0.5,y+0.5,-z+0.5
5 -x,-y,-z
6 x,-y,z
7 -x+0.5,-y+0.5,-z+0.5
8 x+0.5,-y+0.5,z+0.5
loop_
_space_group_symop_ssg_id
_space_group_symop_ssg_operation_algebraic
1 x1,x2,x3,x4
2 -x1,x2,-x3,-x4
3 -x1,-x2,-x3,-x4
4 x1,-x2,x3,x4
5 x1+1/2,x2+1/2,x3+1/2,x4+1/2
6 -x1+1/2,x2+1/2,-x3+1/2,-x4+1/2
7 -x1+1/2,-x2+1/2,-x3+1/2,-x4+1/2
8 x1+1/2,-x2+1/2,x3+1/2,x4+1/2
loop_
_atom_site_label
_atom_site_type_symbol
_atom_site_fract_x
_atom_site_fract_y
_atom_site_fract_z
_atom_site_adp_type
_atom_site_U_iso_or_equiv
_atom_site_site_symmetry_mutiplicity
_atom_site_occupancy
_atom_site_calc_flag
Na Na 0 0 0 Uiso 0.0117(7) 2 1 d
Mn Mn 0 0 0 Uiso 0.0059(6) 2 1 d
O O 0 0 0.5 Uiso 0.0026(4) 2 1 d
loop_
_atom_site_displace_Fourier_atom_site_label
_atom_site_displace_Fourier_axis
_atom_site_displace_Fourier_wave_vector_seq_id
_atom_site_displace_Fourier_param_cos
_atom_site_displace_Fourier_param_sin
O x 1 0 0
O y 1 0 0
O z 1 0 0.0243
loop_
_atom_site_displace_special_func_atom_site_label
_atom_site_displace_special_func_sawtooth_ax
_atom_site_displace_special_func_sawtooth_ay
_atom_site_displace_special_func_sawtooth_az
_atom_site_displace_special_func_sawtooth_c
_atom_site_displace_special_func_sawtooth_w
Na -0.044 0 0 0 0.5
Mn -0.1028 0.019 0 0.5 0.5
O -0.1751 0.0024(8) -0.0449(5) 0 1
loop_
_atom_site_Fourier_wave_vector_seq_id
_jana_atom_site_fourier_wave_vector_q1_coeff
1 1
loop_
_atom_type_symbol
_atom_type_scat_length_neutron
_atom_type_scat_source
Na 3.630 International_Tables_Vol_C
Mn -3.730 International_Tables_Vol_C
O 5.803 International_Tables_Vol_C
loop_
_cell_wave_vector_seq_id
_cell_wave_vector_x
_cell_wave_vector_y
_cell_wave_vector_z
1 0.500000 0.000000 0.500000
loop_
_geom_bond_atom_site_label_1
_geom_bond_atom_site_label_2
_geom_bond_site_ssg_symmetry_2
_geom_bond_distance_av
_geom_bond_distance_min
_geom_bond_distance_max
Na Na 1_4555 2.8553(8) 2.8553(8) 2.8553(8)
Na Na 1_6555 2.8553(8) 2.8553(8) 2.8553(8)
Na O 1_5545 2.4223(4) 2.4223(4) 2.4223(4)
Na O . 2.4223(4) 2.4223(4) 2.4223(4)
Na O 5_4445 2.3404(4) 2.3404(4) 2.3404(4)
Na O 5_4545 2.3404(4) 2.3404(4) 2.3404(4)
Na O 5_5445 2.3404(4) 2.3404(4) 2.3404(4)
Na O 5_5545 2.3404(4) 2.3404(4) 2.3404(4)
Mn Mn 1_4555 2.8553(8) 2.8553(8) 2.8553(8)
Mn Mn 1_6555 2.8553(8) 2.8553(8) 2.8553(8)
Mn O 1_5545 2.3899(4) 2.3899(4) 2.3899(4)
Mn O . 2.3899(4) 2.3899(4) 2.3899(4)
Mn O 5_4445 1.9319(4) 1.9319(4) 1.9319(4)
Mn O 5_4545 1.9319(4) 1.9319(4) 1.9319(4)
Mn O 5_5445 1.9319(4) 1.9319(4) 1.9319(4)
Mn O 5_5545 1.9319(4) 1.9319(4) 1.9319(4)
O O 1_4555 2.8553(8) 2.8553(8) 2.8553(8)
O O 1_5455 3.1561(6) 2.6031(6) 3.7091(6)
O O 1_5655 3.1561(6) 2.6031(6) 3.7091(6)
O O 1_6555 2.8553(8) 2.8553(8) 2.8553(8)
O O 5_4455 3.2641(6) 2.9728(6) 3.5553(6)
O O 5_4545 3.2641(6) 2.9728(6) 3.5553(6)
O O 5_5455 3.2641(6) 2.9728(6) 3.5553(6)
O O 5_5545 3.2641(6) 2.9728(6) 3.5553(6)
loop_
_pd_proc_point_id
_pd_proc_2theta_corrected
_pd_proc_intensity_net
_pd_calc_intensity_net
_pd_proc_ls_weight
1 14.8200 299.00 298.67 25.00
2 14.8700 322.00 298.82 26.00
3 14.9200 276.00 298.97 24.00
4 14.9700 281.00 299.12 24.00
5 15.0200 290.00 299.27 24.00
6 15.0700 260.00 299.41 23.00
7 15.1200 253.00 299.55 23.00
8 15.1700 268.00 299.68 23.00
9 15.2200 295.00 299.81 24.00
10 15.2700 296.00 299.94 24.00
11 15.3200 276.00 300.07 24.00
12 15.3700 308.00 300.19 25.00
13 15.4200 265.00 300.31 23.00
14 15.4700 265.00 300.43 23.00
15 15.5200 270.00 300.54 23.00
16 15.5700 263.00 300.65 23.00
17 15.6200 279.00 300.76 24.00
18 15.6700 319.00 300.86 25.00
19 15.7200 279.00 300.97 24.00
20 15.7700 294.00 301.07 24.00
21 15.8200 278.00 301.16 24.00
22 15.8700 267.00 301.25 23.00
23 15.9200 300.00 301.35 25.00
24 15.9700 327.00 301.43 26.00
25 16.0200 306.00 301.52 25.00
26 16.0700 334.00 301.60 26.00
27 16.1200 332.00 301.68 26.00
28 16.1700 306.00 301.76 25.00
29 16.2200 308.00 301.83 25.00
30 16.2700 319.00 301.90 25.00
31 16.3200 277.00 301.97 24.00
32 16.3700 345.00 302.03 38.00
33 16.4200 280.00 302.10 23.00
34 16.4700 288.00 302.16 24.00
35 16.5200 299.00 302.21 24.00
36 16.5700 317.00 302.27 25.00
37 16.6200 282.00 302.32 23.00
38 16.6700 275.00 302.37 23.00
39 16.7200 302.00 302.42 24.00
40 16.7700 305.00 302.46 24.00
41 16.8200 286.00 302.51 24.00
42 16.8700 297.00 302.55 24.00
43 16.9200 297.00 302.58 24.00
44 16.9700 318.00 302.62 25.00
45 17.0200 272.00 302.65 23.00
46 17.0700 307.00 302.68 24.00
47 17.1200 279.00 302.70 23.00
48 17.1700 285.00 302.73 23.00
49 17.2200 271.00 302.75 23.00
50 17.2700 255.00 302.77 22.00
51 17.3200 293.00 302.79 24.00
52 17.3700 289.00 302.80 24.00
53 17.4200 296.00 302.82 24.00
54 17.4700 307.00 302.83 24.00
55 17.5200 272.00 302.84 23.00
56 17.5700 252.00 302.84 22.00
57 17.6200 252.00 302.85 22.00
58 17.6700 288.00 302.85 24.00
59 17.7200 306.00 302.85 24.00
60 17.7700 319.00 302.84 25.00
61 17.8200 297.00 302.84 24.00
62 17.8700 259.00 302.83 22.00
63 17.9200 314.00 302.82 25.00
64 17.9700 298.00 302.81 24.00
65 18.0200 301.00 302.79 24.00
66 18.0700 326.00 302.77 25.00
67 18.1200 279.00 302.76 23.00
68 18.1700 323.00 302.74 25.00
69 18.2200 269.00 302.71 23.00
70 18.2700 267.00 302.69 23.00
71 18.3200 286.00 302.66 24.00
72 18.3700 293.00 302.63 24.00
73 18.4200 287.00 302.60 24.00
74 18.4700 313.00 302.57 25.00
75 18.5200 301.00 302.53 24.00
76 18.5700 270.00 302.49 23.00
77 18.6200 269.00 302.46 23.00
78 18.6700 328.00 302.42 25.00
79 18.7200 327.00 302.37 25.00
80 18.7700 320.00 302.33 25.00
81 18.8200 313.00 302.28 25.00
82 18.8700 319.00 302.23 25.00
83 18.9200 341.00 302.18 26.00
84 18.9700 311.00 302.13 25.00
85 19.0200 305.00 302.07 24.00
86 19.0700 291.00 302.02 24.00
87 19.1200 323.00 301.96 25.00
88 19.1700 290.00 301.90 24.00
89 19.2200 334.00 301.83 26.00
90 19.2700 286.00 301.77 24.00
91 19.3200 332.00 301.70 25.00
92 19.3700 310.00 301.64 25.00
93 19.4200 352.00 301.57 26.00
94 19.4700 375.00 301.50 27.00
95 19.5200 332.00 301.42 25.00
96 19.5700 346.00 301.35 26.00
97 19.6200 313.00 301.27 25.00
98 19.6700 351.00 301.20 26.00
99 19.7200 304.00 301.12 24.00
100 19.7700 286.00 301.03 24.00
101 19.8200 298.00 300.95 24.00
102 19.8700 332.00 300.87 25.00
103 19.9200 287.00 300.78 24.00
104 19.9700 268.00 300.69 23.00
105 20.0200 325.00 300.60 25.00
106 20.0700 316.00 300.51 25.00
107 20.1200 286.00 301.01 24.00
108 20.1700 276.00 300.94 23.00
109 20.2200 272.00 300.87 23.00
110 20.2700 275.00 300.80 23.00
111 20.3200 317.00 300.73 25.00
112 20.3700 336.00 300.67 26.00
113 20.4200 312.00 300.60 25.00
114 20.4700 283.00 300.54 23.00
115 20.5200 302.00 300.47 24.00
116 20.5700 319.00 300.41 25.00
117 20.6200 304.00 300.35 24.00
118 20.6700 294.00 300.29 24.00
119 20.7200 312.00 300.24 25.00
120 20.7700 285.00 300.19 23.00
121 20.8200 296.00 300.14 24.00
122 20.8700 292.00 300.10 24.00
123 20.9200 266.00 300.06 23.00
124 20.9700 299.00 300.03 24.00
125 21.0200 287.00 300.01 24.00
126 21.0700 324.00 299.99 25.00
127 21.1200 285.00 299.99 23.00
128 21.1700 316.00 300.00 25.00
129 21.2200 318.00 300.02 25.00
130 21.2700 345.00 300.06 26.00
131 21.3200 330.00 300.12 25.00
132 21.3700 337.00 300.21 25.00
133 21.4200 316.00 300.32 24.00
134 21.4700 302.00 300.46 23.00
135 21.5200 347.00 300.65 25.00
136 21.5700 323.00 300.89 24.00
137 21.6200 327.00 301.18 24.00
138 21.6700 314.00 301.56 24.00
139 21.7200 363.00 302.03 26.00
140 21.7700 327.00 302.62 24.00
141 21.8200 304.00 303.37 23.00
142 21.8700 332.00 304.33 24.00
143 21.9200 351.00 305.59 25.00
144 21.9700 342.00 307.36 25.00
145 22.0200 359.00 310.28 25.00
146 22.0700 347.00 316.22 25.00
147 22.1200 339.00 330.25 25.00
148 22.1700 406.00 363.65 27.00
149 22.2200 485.00 436.20 30.00
150 22.2700 580.00 572.88 32.00
151 22.3200 792.00 789.67 38.00
152 22.3700 1013.00 1071.15 43.00
153 22.4200 1199.00 1355.23 47.00
154 22.4700 1402.00 1543.47 50.00
155 22.5200 1464.00 1549.67 51.00
156 22.5700 1346.00 1370.58 49.00
157 22.6200 1058.00 1089.12 44.00
158 22.6700 779.00 804.81 37.00
159 22.7200 622.00 582.73 33.00
160 22.7700 436.00 440.95 28.00
161 22.8200 350.00 364.79 25.00
162 22.8700 350.00 329.30 25.00
163 22.9200 389.00 314.15 26.00
164 22.9700 347.00 307.58 25.00
165 23.0200 323.00 304.24 24.00
166 23.0700 326.00 302.11 24.00
167 23.1200 313.00 300.52 24.00
168 23.1700 325.00 299.24 24.00
169 23.2200 326.00 298.17 24.00
170 23.2700 312.00 297.26 24.00
171 23.3200 301.00 296.47 23.00
172 23.3700 332.00 295.78 24.00
173 23.4200 287.00 295.17 23.00
174 23.4700 301.00 294.62 23.00
175 23.5200 327.00 294.13 24.00
176 23.5700 301.00 293.67 23.00
177 23.6200 299.00 293.25 23.00
178 23.6700 297.00 292.86 23.00
179 23.7200 312.00 292.49 24.00
180 23.7700 285.00 292.15 23.00
181 23.8200 310.00 291.82 24.00
182 23.8700 358.00 291.51 25.00
183 23.9200 351.00 291.20 25.00
184 23.9700 320.00 290.92 24.00
185 24.0200 331.00 290.64 24.00
186 24.0700 328.00 290.36 24.00
187 24.1200 312.00 290.10 24.00
188 24.1700 299.00 289.84 23.00
189 24.2200 309.00 289.59 24.00
190 24.2700 295.00 289.34 23.00
191 24.3200 292.00 289.09 23.00
192 24.3700 318.00 288.85 24.00
193 24.4200 308.00 288.62 23.00
194 24.4700 344.00 288.38 25.00
195 24.5200 338.00 288.15 25.00
196 24.5700 339.00 287.92 25.00
197 24.6200 326.00 287.69 24.00
198 24.6700 289.00 287.47 23.00
199 24.7200 294.00 287.24 23.00
200 24.7700 277.00 287.02 22.00
201 24.8200 302.00 286.80 23.00
202 24.8700 324.00 286.58 24.00
203 24.9200 318.00 285.79 24.00
204 24.9700 296.00 285.60 23.00
205 25.0200 279.00 285.40 22.00
206 25.0700 325.00 285.20 24.00
207 25.1200 305.00 285.01 23.00
208 25.1700 347.00 284.81 25.00
209 25.2200 264.00 284.61 22.00
210 25.2700 300.00 284.41 23.00
211 25.3200 305.00 284.21 23.00
212 25.3700 313.00 284.01 24.00
213 25.4200 313.00 283.81 24.00
214 25.4700 302.00 283.61 23.00
215 25.5200 347.00 283.40 25.00
216 25.5700 324.00 283.20 24.00
217 25.6200 300.00 283.00 23.00
218 25.6700 304.00 282.79 23.00
219 25.7200 301.00 282.59 23.00
220 25.7700 303.00 282.38 23.00
221 25.8200 282.00 282.18 22.00
222 25.8700 281.00 281.97 22.00
223 25.9200 302.00 281.77 23.00
224 25.9700 303.00 281.56 23.00
225 26.0200 302.00 281.35 23.00
226 26.0700 326.00 281.14 24.00
227 26.1200 305.00 280.94 23.00
228 26.1700 281.00 280.73 22.00
229 26.2200 325.00 280.52 24.00
230 26.2700 320.00 280.31 24.00
231 26.3200 283.00 280.10 22.00
232 26.3700 273.00 279.89 22.00
233 26.4200 238.00 279.68 21.00
234 26.4700 305.00 279.47 24.00
235 26.5200 287.00 279.26 23.00
236 26.5700 284.00 279.05 23.00
237 26.6200 275.00 278.83 22.00
238 26.6700 280.00 278.62 23.00
239 26.7200 276.00 278.41 22.00
240 26.7700 264.00 278.20 22.00
241 26.8200 295.00 277.98 23.00
242 26.8700 295.00 277.77 23.00
243 26.9200 311.00 277.55 24.00
244 26.9700 282.00 277.34 23.00
245 27.0200 278.00 277.13 23.00
246 27.0700 271.00 276.91 22.00
247 27.1200 289.00 276.70 23.00
248 27.1700 255.00 276.48 22.00
249 27.2200 278.00 276.26 23.00
250 27.2700 284.00 276.05 23.00
251 27.3200 303.00 275.83 23.00
252 27.3700 299.00 275.61 23.00
253 27.4200 273.00 275.40 22.00
254 27.4700 250.00 275.18 21.00
255 27.5200 275.00 274.96 22.00
256 27.5700 269.00 274.74 22.00
257 27.6200 290.00 274.52 23.00
258 27.6700 273.00 274.31 22.00
259 27.7200 255.00 274.09 22.00
260 27.7700 269.00 273.87 22.00
261 27.8200 271.00 273.65 22.00
262 27.8700 257.00 273.43 22.00
263 27.9200 268.00 273.21 22.00
264 27.9700 282.00 272.99 23.00
265 28.0200 290.00 272.77 23.00
266 28.0700 302.00 272.55 23.00
267 28.1200 276.00 272.33 22.00
268 28.1700 299.00 272.11 23.00
269 28.2200 271.00 271.89 22.00
270 28.2700 265.00 271.67 22.00
271 28.3200 245.00 271.45 21.00
272 28.3700 278.00 271.23 22.00
273 28.4200 257.00 271.01 22.00
274 28.4700 268.00 270.78 22.00
275 28.5200 282.00 270.56 23.00
276 28.5700 287.00 270.34 23.00
277 28.6200 305.00 270.12 24.00
278 28.6700 290.00 269.89 23.00
279 28.7200 272.00 269.67 22.00
280 28.7700 291.00 269.45 23.00
281 28.8200 297.00 269.23 23.00
282 28.8700 301.00 269.01 23.00
283 28.9200 301.00 268.78 23.00
284 28.9700 270.00 268.56 22.00
285 29.0200 259.00 268.34 22.00
286 29.0700 279.00 268.11 23.00
287 29.1200 268.00 267.89 22.00
288 29.1700 259.00 267.67 22.00
289 29.2200 283.00 267.45 23.00
290 29.2700 259.00 267.22 22.00
291 29.3200 266.00 267.00 22.00
292 29.3700 252.00 266.77 21.00
293 29.4200 287.00 266.55 23.00
294 29.4700 298.00 266.33 23.00
295 29.5200 286.00 266.10 23.00
296 29.5700 261.00 265.88 22.00
297 29.6200 267.00 265.66 22.00
298 29.6700 275.00 265.43 22.00
299 29.7200 240.00 265.21 21.00
300 29.7700 259.00 264.98 22.00
301 29.8200 257.00 264.76 22.00
302 29.8700 255.00 264.54 22.00
303 29.9200 245.00 264.31 21.00
304 29.9700 252.00 264.09 21.00
305 30.0200 275.00 263.87 22.00
306 30.0700 306.00 263.64 24.00
307 30.1200 284.00 263.42 23.00
308 30.1700 265.00 263.20 22.00
309 30.2200 239.00 262.97 21.00
310 30.2700 269.00 262.75 22.00
311 30.3200 241.00 262.52 21.00
312 30.3700 231.00 262.30 21.00
313 30.4200 227.00 262.08 20.00
314 30.4700 274.00 261.85 22.00
315 30.5200 282.00 261.63 23.00
316 30.5700 258.00 261.40 22.00
317 30.6200 278.00 261.18 23.00
318 30.6700 250.00 260.96 21.00
319 30.7200 215.00 260.73 20.00
320 30.7700 235.00 260.51 21.00
321 30.8200 250.00 260.29 21.00
322 30.8700 220.00 260.06 20.00
323 30.9200 255.00 259.84 22.00
324 30.9700 254.00 259.62 22.00
325 31.0200 243.00 259.39 21.00
326 31.0700 219.00 259.17 20.00
327 31.1200 251.00 258.95 21.00
328 31.1700 237.00 258.73 21.00
329 31.2200 247.00 258.50 21.00
330 31.2700 240.00 258.28 21.00
331 31.3200 254.00 258.06 22.00
332 31.3700 242.00 257.84 20.00
333 31.4200 254.00 257.61 21.00
334 31.4700 274.00 257.39 22.00
335 31.5200 267.00 257.17 21.00
336 31.5700 244.00 256.95 20.00
337 31.6200 291.00 256.73 22.00
338 31.6700 265.00 256.51 21.00
339 31.7200 271.00 256.28 22.00
340 31.7700 238.00 256.06 20.00
341 31.8200 238.00 255.84 20.00
342 31.8700 254.00 255.62 21.00
343 31.9200 250.00 255.40 21.00
344 31.9700 271.00 255.18 21.00
345 32.0200 230.00 254.96 20.00
346 32.0700 228.00 254.74 20.00
347 32.1200 257.00 254.52 21.00
348 32.1700 240.00 254.30 20.00
349 32.2200 241.00 254.08 20.00
350 32.2700 262.00 253.86 21.00
351 32.3200 263.00 253.64 21.00
352 32.3700 240.00 253.42 20.00
353 32.4200 267.00 253.20 21.00
354 32.4700 263.00 252.98 21.00
355 32.5200 234.00 252.76 20.00
356 32.5700 255.00 252.54 21.00
357 32.6200 285.00 252.32 22.00
358 32.6700 256.00 252.10 21.00
359 32.7200 265.00 251.88 21.00
360 32.7700 272.00 251.67 22.00
361 32.8200 264.00 251.45 21.00
362 32.8700 269.00 251.23 21.00
363 32.9200 241.00 251.01 20.00
364 32.9700 229.00 250.80 20.00
365 33.0200 235.00 250.58 20.00
366 33.0700 244.00 250.36 20.00
367 33.1200 228.00 250.15 20.00
368 33.1700 236.00 249.93 20.00
369 33.2200 226.00 249.71 20.00
370 33.2700 236.00 249.50 20.00
371 33.3200 239.00 249.28 20.00
372 33.3700 248.00 249.07 21.00
373 33.4200 230.00 248.85 20.00
374 33.4700 239.00 248.64 20.00
375 33.5200 235.00 248.42 20.00
376 33.5700 268.00 248.21 21.00
377 33.6200 246.00 247.99 21.00
378 33.6700 221.00 247.78 19.00
379 33.7200 220.00 247.56 19.00
380 33.7700 256.00 247.35 21.00
381 33.8200 256.00 247.14 21.00
382 33.8700 212.00 246.92 19.00
383 33.9200 231.00 246.71 20.00
384 33.9700 236.00 246.50 20.00
385 34.0200 238.00 246.29 20.00
386 34.0700 234.00 246.07 20.00
387 34.1200 244.00 245.86 20.00
388 34.1700 243.00 245.65 20.00
389 34.2200 207.00 245.44 19.00
390 34.2700 218.00 245.23 19.00
391 34.3200 243.00 245.02 20.00
392 34.3700 262.00 244.81 21.00
393 34.4200 269.00 244.60 21.00
394 34.4700 252.00 244.39 21.00
395 34.5200 242.00 244.18 20.00
396 34.5700 244.00 243.97 20.00
397 34.6200 256.00 243.76 21.00
398 34.6700 254.00 243.55 21.00
399 34.7200 252.00 243.34 21.00
400 34.7700 245.00 243.13 20.00
401 34.8200 231.00 242.93 20.00
402 34.8700 222.00 242.72 19.00
403 34.9200 252.00 242.51 21.00
404 34.9700 260.00 242.30 21.00
405 35.0200 263.00 242.10 21.00
406 35.0700 232.00 241.89 20.00
407 35.1200 224.00 241.69 20.00
408 35.1700 255.00 241.48 21.00
409 35.2200 226.00 241.27 20.00
410 35.2700 238.00 241.07 20.00
411 35.3200 257.00 240.87 21.00
412 35.3700 214.00 240.66 19.00
413 35.4200 235.00 240.46 20.00
414 35.4700 235.00 240.25 20.00
415 35.5200 234.00 240.05 20.00
416 35.5700 220.00 239.85 19.00
417 35.6200 237.00 239.64 20.00
418 35.6700 226.00 239.44 20.00
419 35.7200 255.00 239.24 21.00
420 35.7700 256.00 239.04 21.00
421 35.8200 243.00 238.84 20.00
422 35.8700 250.00 238.63 21.00
423 35.9200 205.00 238.43 19.00
424 35.9700 209.00 238.23 19.00
425 36.0200 217.00 238.03 19.00
426 36.0700 220.00 237.83 19.00
427 36.1200 227.00 237.63 20.00
428 36.1700 235.00 237.43 20.00
429 36.2200 237.00 237.24 20.00
430 36.2700 223.00 237.04 20.00
431 36.3200 208.00 236.84 19.00
432 36.3700 226.00 236.64 15.00
433 36.4200 224.00 236.44 18.00
434 36.4700 216.00 236.25 18.00
435 36.5200 224.00 236.05 18.00
436 36.5700 220.00 235.85 18.00
437 36.6200 231.00 235.66 18.00
438 36.6700 227.00 235.46 18.00
439 36.7200 248.00 235.27 19.00
440 36.7700 237.00 235.07 19.00
441 36.8200 248.00 234.88 19.00
442 36.8700 236.00 234.68 18.00
443 36.9200 238.00 234.49 19.00
444 36.9700 228.00 234.30 18.00
445 37.0200 241.00 234.10 19.00
446 37.0700 250.00 233.91 19.00
447 37.1200 217.00 233.72 18.00
448 37.1700 230.00 233.53 18.00
449 37.2200 217.00 233.33 18.00
450 37.2700 201.00 233.14 17.00
451 37.3200 226.00 232.95 18.00
452 37.3700 207.00 232.76 17.00
453 37.4200 231.00 232.57 18.00
454 37.4700 197.00 232.38 17.00
455 37.5200 201.00 232.19 17.00
456 37.5700 196.00 232.00 17.00
457 37.6200 211.00 231.81 17.00
458 37.6700 235.00 231.63 18.00
459 37.7200 223.00 231.44 18.00
460 37.7700 229.00 231.25 18.00
461 37.8200 224.00 231.06 18.00
462 37.8700 235.00 230.88 18.00
463 37.9200 211.00 230.69 17.00
464 37.9700 227.00 230.50 18.00
465 38.0200 248.00 230.32 19.00
466 38.0700 231.00 230.13 18.00
467 38.1200 219.00 229.95 18.00
468 38.1700 225.00 229.76 18.00
469 38.2200 199.00 229.58 17.00
470 38.2700 224.00 229.40 18.00
471 38.3200 237.00 229.21 19.00
472 38.3700 244.00 229.03 19.00
473 38.4200 222.00 228.85 18.00
474 38.4700 232.00 228.67 18.00
475 38.5200 221.00 228.48 18.00
476 38.5700 216.00 228.30 18.00
477 38.6200 244.00 228.12 19.00
478 38.6700 229.00 227.94 18.00
479 38.7200 215.00 227.76 18.00
480 38.7700 215.00 227.58 18.00
481 38.8200 243.00 227.40 19.00
482 38.8700 240.00 227.22 19.00
483 38.9200 225.00 227.04 18.00
484 38.9700 205.00 226.87 17.00
485 39.0200 218.00 226.69 18.00
486 39.0700 201.00 226.51 17.00
487 39.1200 227.00 226.33 18.00
488 39.1700 214.00 226.16 18.00
489 39.2200 206.00 225.98 17.00
490 39.2700 217.00 225.81 18.00
491 39.3200 198.00 225.63 17.00
492 39.3700 204.00 225.46 17.00
493 39.4200 236.00 225.28 18.00
494 39.4700 259.00 225.11 19.00
495 39.5200 235.00 224.93 18.00
496 39.5700 225.00 224.76 18.00
497 39.6200 228.00 224.59 18.00
498 39.6700 222.00 224.41 18.00
499 39.7200 210.00 224.24 17.00
500 39.7700 233.00 224.07 18.00
501 39.8200 221.00 223.90 18.00
502 39.8700 204.00 223.73 17.00
503 39.9200 195.00 223.56 17.00
504 39.9700 219.00 223.39 18.00
505 40.0200 226.00 223.58 18.00
506 40.0700 228.00 223.42 18.00
507 40.1200 216.00 223.27 18.00
508 40.1700 224.00 223.11 18.00
509 40.2200 196.00 222.96 17.00
510 40.2700 195.00 222.80 17.00
511 40.3200 215.00 222.65 18.00
512 40.3700 211.00 222.49 17.00
513 40.4200 196.00 222.35 17.00
514 40.4700 225.00 222.20 18.00
515 40.5200 217.00 222.05 18.00
516 40.5700 216.00 221.90 18.00
517 40.6200 241.00 221.75 19.00
518 40.6700 233.00 221.61 18.00
519 40.7200 233.00 221.47 18.00
520 40.7700 211.00 221.33 18.00
521 40.8200 226.00 221.19 18.00
522 40.8700 235.00 221.05 18.00
523 40.9200 232.00 220.92 18.00
524 40.9700 239.00 220.78 19.00
525 41.0200 205.00 220.65 17.00
526 41.0700 201.00 220.52 17.00
527 41.1200 228.00 220.40 18.00
528 41.1700 229.00 220.28 18.00
529 41.2200 215.00 220.16 18.00
530 41.2700 208.00 220.04 17.00
531 41.3200 193.00 219.93 17.00
532 41.3700 215.00 219.82 17.00
533 41.4200 232.00 219.71 17.00
534 41.4700 235.00 219.62 17.00
535 41.5200 240.00 219.52 18.00
536 41.5700 233.00 219.43 17.00
537 41.6200 206.00 219.35 16.00
538 41.6700 207.00 219.27 16.00
539 41.7200 199.00 219.21 16.00
540 41.7700 200.00 219.15 16.00
541 41.8200 215.00 219.10 17.00
542 41.8700 229.00 219.06 17.00
543 41.9200 246.00 219.04 18.00
544 41.9700 197.00 219.03 16.00
545 42.0200 205.00 219.03 16.00
546 42.0700 201.00 219.06 16.00
547 42.1200 227.00 219.10 17.00
548 42.1700 218.00 219.18 17.00
549 42.2200 223.00 219.28 17.00
550 42.2700 243.00 219.42 18.00
551 42.3200 235.00 219.60 17.00
552 42.3700 217.00 219.83 17.00
553 42.4200 225.00 220.12 17.00
554 42.4700 211.00 220.49 17.00
555 42.5200 224.00 220.95 17.00
556 42.5700 207.00 221.53 16.00
557 42.6200 198.00 222.27 16.00
558 42.6700 216.00 223.25 17.00
559 42.7200 238.00 224.63 18.00
560 42.7700 241.00 226.68 18.00
561 42.8200 238.00 229.92 18.00
562 42.8700 246.00 235.21 18.00
563 42.9200 255.00 243.84 18.00
564 42.9700 287.00 257.46 19.00
565 43.0200 274.00 277.79 19.00
566 43.0700 327.00 306.03 21.00
567 43.1200 326.00 342.10 20.00
568 43.1700 394.00 383.79 23.00
569 43.2200 384.00 427.99 22.00
570 43.2700 420.00 462.97 23.00
571 43.3200 412.00 480.74 23.00
572 43.3700 423.00 474.83 23.00
573 43.4200 413.00 447.50 23.00
574 43.4700 407.00 407.65 23.00
575 43.5200 364.00 364.62 22.00
576 43.5700 328.00 325.01 21.00
577 43.6200 287.00 292.39 19.00
578 43.6700 271.00 267.86 19.00
579 43.7200 243.00 250.79 18.00
580 43.7700 225.00 239.63 17.00
581 43.8200 215.00 232.65 17.00
582 43.8700 223.00 228.34 17.00
583 43.9200 227.00 225.63 17.00
584 43.9700 230.00 223.84 17.00
585 44.0200 214.00 222.59 17.00
586 44.0700 209.00 221.65 16.00
587 44.1200 203.00 220.93 16.00
588 44.1700 175.00 220.37 15.00
589 44.2200 194.00 219.93 16.00
590 44.2700 193.00 219.60 16.00
591 44.3200 212.00 219.36 17.00
592 44.3700 199.00 221.09 16.00
593 44.4200 211.00 221.09 17.00
594 44.4700 203.00 221.17 16.00
595 44.5200 229.00 221.34 17.00
596 44.5700 231.00 221.58 17.00
597 44.6200 216.00 221.92 17.00
598 44.6700 218.00 222.34 17.00
599 44.7200 212.00 222.87 17.00
600 44.7700 219.00 223.51 17.00
601 44.8200 212.00 224.28 17.00
602 44.8700 205.00 225.20 16.00
603 44.9200 207.00 226.29 16.00
604 44.9700 213.00 227.59 17.00
605 45.0200 223.00 229.12 17.00
606 45.0700 231.00 230.95 17.00
607 45.1200 224.00 233.13 17.00
608 45.1700 220.00 235.76 17.00
609 45.2200 242.00 238.96 18.00
610 45.2700 258.00 242.88 18.00
611 45.3200 217.00 247.84 17.00
612 45.3700 225.00 254.38 17.00
613 45.4200 244.00 263.77 18.00
614 45.4700 266.00 278.88 19.00
615 45.5200 286.00 305.73 19.00
616 45.5700 328.00 355.44 21.00
617 45.6200 409.00 444.94 23.00
618 45.6700 555.00 594.02 27.00
619 45.7200 773.00 816.61 31.00
620 45.7700 1019.00 1107.44 36.00
621 45.8200 1414.00 1429.36 42.00
622 45.8700 1744.00 1706.89 47.00
623 45.9200 1882.00 1839.05 49.00
624 45.9700 1810.00 1761.95 48.00
625 46.0200 1570.00 1514.87 45.00
626 46.0700 1198.00 1197.46 39.00
627 46.1200 887.00 894.78 34.00
628 46.1700 621.00 654.09 28.00
629 46.2200 519.00 488.19 26.00
630 46.2700 466.00 386.99 24.00
631 46.3200 393.00 331.24 23.00
632 46.3700 354.00 302.86 20.00
633 46.4200 369.00 289.32 20.00
634 46.4700 319.00 286.88 19.00
635 46.5200 345.00 286.42 20.00
636 46.5700 360.00 290.72 20.00
637 46.6200 410.00 302.11 22.00
638 46.6700 466.00 326.11 23.00
639 46.7200 509.00 374.47 24.00
640 46.7700 589.00 463.37 26.00
641 46.8200 733.00 611.67 29.00
642 46.8700 933.00 831.69 32.00
643 46.9200 1153.00 1116.45 36.00
644 46.9700 1355.00 1427.84 39.00
645 47.0200 1494.00 1690.94 41.00
646 47.0700 1623.00 1808.17 43.00
647 47.1200 1649.00 1722.08 43.00
648 47.1700 1493.00 1479.85 41.00
649 47.2200 1159.00 1168.97 36.00
650 47.2700 846.00 874.62 31.00
651 47.3200 682.00 640.89 28.00
652 47.3700 519.00 479.21 24.00
653 47.4200 389.00 379.52 21.00
654 47.4700 347.00 323.20 20.00
655 47.5200 299.00 292.82 18.00
656 47.5700 294.00 276.22 18.00
657 47.6200 274.00 266.45 18.00
658 47.6700 276.00 260.10 18.00
659 47.7200 252.00 255.64 17.00
660 47.7700 261.00 252.42 17.00
661 47.8200 226.00 250.10 16.00
662 47.8700 210.00 248.53 16.00
663 47.9200 215.00 247.58 16.00
664 47.9700 235.00 249.09 16.00
665 48.0200 221.00 249.30 16.00
666 48.0700 221.00 250.03 16.00
667 48.1200 222.00 251.30 16.00
668 48.1700 240.00 253.14 17.00
669 48.2200 257.00 255.62 17.00
670 48.2700 273.00 258.82 18.00
671 48.3200 257.00 262.89 17.00
672 48.3700 270.00 268.00 18.00
673 48.4200 281.00 274.45 18.00
674 48.4700 285.00 282.71 18.00
675 48.5200 298.00 293.77 18.00
676 48.5700 311.00 309.98 19.00
677 48.6200 354.00 337.05 20.00
678 48.6700 412.00 386.00 22.00
679 48.7200 475.00 485.42 23.00
680 48.7700 708.00 672.59 28.00
681 48.8200 1018.00 993.68 34.00
682 48.8700 1480.00 1478.70 41.00
683 48.9200 2136.00 2107.17 49.00
684 48.9700 2715.00 2778.30 55.00
685 49.0200 3252.00 3305.20 61.00
686 49.0700 3456.00 3470.43 62.00
687 49.1200 3082.00 3189.87 59.00
688 49.1700 2521.00 2604.76 53.00
689 49.2200 1890.00 1936.14 46.00
690 49.2700 1294.00 1348.35 38.00
691 49.3200 944.00 917.59 33.00
692 49.3700 712.00 646.65 28.00
693 49.4200 556.00 497.92 25.00
694 49.4700 435.00 426.01 22.00
695 49.5200 350.00 396.26 20.00
696 49.5700 378.00 388.84 21.00
697 49.6200 369.00 395.74 20.00
698 49.6700 368.00 417.17 20.00
699 49.7200 393.00 460.21 21.00
700 49.7700 443.00 539.24 22.00
701 49.8200 582.00 674.63 26.00
702 49.8700 795.00 897.67 30.00
703 49.9200 1080.00 1231.71 35.00
704 49.9700 1635.00 1686.47 43.00
705 50.0200 2396.00 2240.62 52.00
706 50.0700 3245.00 2828.02 60.00
707 50.1200 3870.00 3329.52 66.00
708 50.1700 4162.00 3589.71 68.00
709 50.2200 4096.00 3501.11 68.00
710 50.2700 3469.00 3102.27 62.00
711 50.3200 2630.00 2539.17 54.00
712 50.3700 1896.00 1954.91 46.00
713 50.4200 1417.00 1442.35 40.00
714 50.4700 992.00 1044.17 33.00
715 50.5200 726.00 764.55 29.00
716 50.5700 528.00 584.15 24.00
717 50.6200 442.00 475.08 22.00
718 50.6700 345.00 411.54 20.00
719 50.7200 324.00 374.65 19.00
720 50.7700 311.00 352.67 19.00
721 50.8200 292.00 339.28 18.00
722 50.8700 298.00 331.54 18.00
723 50.9200 296.00 328.51 18.00
724 50.9700 295.00 330.60 18.00
725 51.0200 299.00 339.45 18.00
726 51.0700 343.00 358.01 20.00
727 51.1200 421.00 390.70 22.00
728 51.1700 476.00 443.15 23.00
729 51.2200 591.00 521.33 26.00
730 51.2700 694.00 629.94 28.00
731 51.3200 795.00 770.22 30.00
732 51.3700 995.00 937.51 31.00
733 51.4200 1117.00 1119.01 33.00
734 51.4700 1255.00 1291.94 35.00
735 51.5200 1425.00 1423.36 38.00
736 51.5700 1539.00 1478.04 39.00
737 51.6200 1592.00 1437.63 40.00
738 51.6700 1469.00 1311.80 38.00
739 51.7200 1277.00 1140.56 36.00
740 51.7700 1070.00 954.95 33.00
741 51.8200 814.00 779.81 28.00
742 51.8700 600.00 629.67 24.00
743 51.9200 456.00 510.48 21.00
744 51.9700 363.00 421.87 19.00
745 52.0200 313.00 359.55 18.00
746 52.0700 278.00 317.47 17.00
747 52.1200 251.00 289.70 16.00
748 52.1700 217.00 271.35 15.00
749 52.2200 210.00 258.88 15.00
750 52.2700 205.00 249.98 14.00
751 52.3200 233.00 243.25 15.00
752 52.3700 223.00 237.90 15.00
753 52.4200 222.00 233.47 15.00
754 52.4700 207.00 229.71 14.00
755 52.5200 208.00 226.47 14.00
756 52.5700 216.00 223.65 15.00
757 52.6200 224.00 221.16 15.00
758 52.6700 209.00 218.96 15.00
759 52.7200 224.00 217.00 15.00
760 52.7700 199.00 215.24 14.00
761 52.8200 195.00 213.66 14.00
762 52.8700 221.00 212.23 15.00
763 52.9200 182.00 210.93 14.00
764 52.9700 175.00 209.75 13.00
765 53.0200 197.00 208.66 14.00
766 53.0700 195.00 207.66 14.00
767 53.1200 194.00 206.74 14.00
768 53.1700 212.00 205.89 15.00
769 53.2200 206.00 205.10 14.00
770 53.2700 191.00 199.93 14.00
771 53.3200 211.00 199.39 15.00
772 53.3700 184.00 198.88 14.00
773 53.4200 197.00 198.41 14.00
774 53.4700 201.00 197.96 14.00
775 53.5200 194.00 197.55 14.00
776 53.5700 212.00 197.16 15.00
777 53.6200 200.00 196.79 14.00
778 53.6700 184.00 196.44 14.00
779 53.7200 205.00 196.11 14.00
780 53.7700 199.00 195.80 14.00
781 53.8200 206.00 195.50 14.00
782 53.8700 199.00 195.22 14.00
783 53.9200 193.00 194.95 14.00
784 53.9700 204.00 194.69 14.00
785 54.0200 216.00 194.45 15.00
786 54.0700 210.00 194.21 15.00
787 54.1200 198.00 193.99 14.00
788 54.1700 205.00 193.77 14.00
789 54.2200 180.00 193.56 13.00
790 54.2700 176.00 193.35 13.00
791 54.3200 216.00 193.16 15.00
792 54.3700 217.00 192.97 15.00
793 54.4200 206.00 192.79 14.00
794 54.4700 216.00 192.61 15.00
795 54.5200 219.00 192.44 15.00
796 54.5700 204.00 192.27 14.00
797 54.6200 211.00 192.11 15.00
798 54.6700 220.00 191.95 15.00
799 54.7200 187.00 191.80 14.00
800 54.7700 191.00 191.65 14.00
801 54.8200 205.00 191.51 14.00
802 54.8700 178.00 191.36 13.00
803 54.9200 203.00 191.22 14.00
804 54.9700 174.00 191.09 13.00
805 55.0200 179.00 190.95 13.00
806 55.0700 210.00 190.82 15.00
807 55.1200 165.00 190.70 13.00
808 55.1700 192.00 190.57 14.00
809 55.2200 213.00 188.60 15.00
810 55.2700 192.00 188.53 14.00
811 55.3200 194.00 188.46 14.00
812 55.3700 228.00 188.39 15.00
813 55.4200 248.00 188.32 16.00
814 55.4700 215.00 188.25 15.00
815 55.5200 250.00 188.18 16.00
816 55.5700 237.00 188.11 15.00
817 55.6200 258.00 188.04 16.00
818 55.6700 233.00 187.97 15.00
819 55.7200 249.00 187.90 16.00
820 55.7700 239.00 187.83 16.00
821 55.8200 217.00 187.76 15.00
822 55.8700 204.00 187.69 14.00
823 55.9200 187.00 189.90 14.00
824 55.9700 183.00 189.91 14.00
825 56.0200 189.00 189.93 14.00
826 56.0700 191.00 189.95 14.00
827 56.1200 189.00 189.97 14.00
828 56.1700 203.00 190.01 14.00
829 56.2200 201.00 190.04 14.00
830 56.2700 216.00 190.09 15.00
831 56.3200 198.00 190.14 14.00
832 56.3700 181.00 190.20 13.00
833 56.4200 175.00 190.26 13.00
834 56.4700 209.00 190.34 14.00
835 56.5200 182.00 190.42 13.00
836 56.5700 200.00 190.52 14.00
837 56.6200 176.00 190.62 13.00
838 56.6700 221.00 190.74 14.00
839 56.7200 223.00 190.88 14.00
840 56.7700 185.00 191.02 13.00
841 56.8200 193.00 191.19 13.00
842 56.8700 202.00 191.37 14.00
843 56.9200 214.00 191.57 14.00
844 56.9700 197.00 191.79 14.00
845 57.0200 208.00 192.04 14.00
846 57.0700 195.00 192.32 14.00
847 57.1200 215.00 192.62 14.00
848 57.1700 178.00 192.96 13.00
849 57.2200 214.00 193.34 14.00
850 57.2700 186.00 193.76 13.00
851 57.3200 195.00 194.23 13.00
852 57.3700 186.00 194.75 13.00
853 57.4200 216.00 195.34 14.00
854 57.4700 186.00 196.01 13.00
855 57.5200 182.00 196.75 13.00
856 57.5700 195.00 197.60 14.00
857 57.6200 188.00 198.56 13.00
858 57.6700 200.00 199.65 14.00
859 57.7200 187.00 200.90 13.00
860 57.7700 213.00 202.34 14.00
861 57.8200 214.00 203.99 14.00
862 57.8700 175.00 205.93 13.00
863 57.9200 215.00 208.18 14.00
864 57.9700 237.00 210.85 15.00
865 58.0200 218.00 214.01 14.00
866 58.0700 262.00 217.81 16.00
867 58.1200 251.00 222.45 15.00
868 58.1700 247.00 228.26 15.00
869 58.2200 253.00 241.14 15.00
870 58.2700 270.00 252.18 16.00
871 58.3200 284.00 269.44 16.00
872 58.3700 285.00 298.89 16.00
873 58.4200 319.00 350.99 17.00
874 58.4700 383.00 441.50 19.00
875 58.5200 554.00 589.28 23.00
876 58.5700 778.00 809.90 27.00
877 58.6200 1112.00 1105.06 32.00
878 58.6700 1465.00 1451.13 37.00
879 58.7200 1924.00 1791.51 43.00
880 58.7700 2117.00 2036.71 45.00
881 58.8200 2137.00 2093.92 45.00
882 58.8700 2064.00 1937.14 44.00
883 58.9200 1639.00 1633.78 39.00
884 58.9700 1273.00 1281.78 35.00
885 59.0200 1016.00 955.89 31.00
886 59.0700 716.00 696.15 26.00
887 59.1200 575.00 512.60 23.00
888 59.1700 442.00 395.39 20.00
889 59.2200 356.00 326.28 18.00
890 59.2700 327.00 287.36 18.00
891 59.3200 292.00 265.42 17.00
892 59.3700 275.00 252.34 16.00
893 59.4200 279.00 243.80 16.00
894 59.4700 235.00 237.74 15.00
895 59.5200 241.00 233.19 15.00
896 59.5700 237.00 229.69 15.00
897 59.6200 243.00 226.99 15.00
898 59.6700 213.00 224.94 14.00
899 59.7200 233.00 223.43 15.00
900 59.7700 235.00 222.39 15.00
901 59.8200 223.00 221.77 14.00
902 59.8700 225.00 221.52 15.00
903 59.9200 252.00 221.64 15.00
904 59.9700 244.00 222.10 15.00
905 60.0200 239.00 222.91 15.00
906 60.0700 249.00 224.09 15.00
907 60.1200 231.00 225.66 15.00
908 60.1700 234.00 227.65 15.00
909 60.2200 224.00 230.11 15.00
910 60.2700 252.00 233.12 15.00
911 60.3200 235.00 236.77 15.00
912 60.3700 263.00 241.18 16.00
913 60.4200 256.00 246.54 15.00
914 60.4700 261.00 253.11 16.00
915 60.5200 262.00 261.36 16.00
916 60.5700 284.00 272.24 16.00
917 60.6200 329.00 287.78 18.00
918 60.6700 338.00 312.24 18.00
919 60.7200 390.00 353.83 19.00
920 60.7700 478.00 426.54 21.00
921 60.8200 581.00 550.42 23.00
922 60.8700 770.00 748.14 27.00
923 60.9200 1076.00 1036.02 32.00
924 60.9700 1294.00 1411.16 35.00
925 61.0200 1823.00 1838.56 42.00
926 61.0700 2065.00 2244.10 44.00
927 61.1200 2366.00 2519.38 47.00
928 61.1700 2368.00 2565.19 47.00
929 61.2200 2300.00 2372.38 47.00
930 61.2700 1949.00 2034.83 43.00
931 61.3200 1643.00 1671.95 39.00
932 61.3700 1362.00 1374.04 35.00
933 61.4200 1226.00 1190.49 33.00
934 61.4700 1197.00 1133.63 32.00
935 61.5200 1272.00 1188.26 33.00
936 61.5700 1405.00 1322.52 35.00
937 61.6200 1644.00 1495.78 38.00
938 61.6700 1784.00 1661.53 40.00
939 61.7200 1932.00 1768.11 41.00
940 61.7700 1929.00 1780.47 41.00
941 61.8200 1778.00 1686.71 39.00
942 61.8700 1648.00 1511.69 38.00
943 61.9200 1343.00 1295.30 34.00
944 61.9700 1072.00 1072.97 31.00
945 62.0200 836.00 868.80 27.00
946 62.0700 686.00 696.10 24.00
947 62.1200 530.00 559.60 21.00
948 62.1700 444.00 457.84 20.00
949 62.2200 371.00 385.52 18.00
950 62.2700 319.00 335.91 17.00
951 62.3200 304.00 302.47 16.00
952 62.3700 292.00 279.85 16.00
953 62.4200 288.00 264.13 16.00
954 62.4700 259.00 252.71 15.00
955 62.5200 267.00 243.98 15.00
956 62.5700 242.00 236.99 14.00
957 62.6200 250.00 231.19 15.00
958 62.6700 251.00 226.27 15.00
959 62.7200 225.00 222.03 14.00
960 62.7700 192.00 218.34 13.00
961 62.8200 213.00 215.09 14.00
962 62.8700 220.00 212.22 14.00
963 62.9200 203.00 209.67 13.00
964 62.9700 185.00 207.39 13.00
965 63.0200 206.00 205.35 13.00
966 63.0700 190.00 203.50 13.00
967 63.1200 219.00 201.84 14.00
968 63.1700 211.00 200.32 13.00
969 63.2200 219.00 198.94 14.00
970 63.2700 221.00 197.68 14.00
971 63.3200 162.00 196.53 12.00
972 63.3700 192.00 195.46 13.00
973 63.4200 197.00 194.48 13.00
974 63.4700 195.00 193.57 13.00
975 63.5200 192.00 192.73 13.00
976 63.5700 183.00 191.95 13.00
977 63.6200 194.00 191.22 13.00
978 63.6700 199.00 190.54 13.00
979 63.7200 179.00 189.90 12.00
980 63.7700 176.00 189.30 12.00
981 63.8200 194.00 188.74 13.00
982 63.8700 198.00 188.21 13.00
983 63.9200 187.00 187.71 13.00
984 63.9700 186.00 187.24 13.00
985 64.0200 207.00 186.79 13.00
986 64.0700 181.00 186.37 12.00
987 64.1200 188.00 183.46 13.00
988 64.1700 205.00 183.16 13.00
989 64.2200 187.00 182.98 13.00
990 64.2700 197.00 182.71 13.00
991 64.3200 192.00 182.46 13.00
992 64.3700 194.00 182.21 13.00
993 64.4200 194.00 181.98 13.00
994 64.4700 191.00 181.75 13.00
995 64.5200 203.00 181.53 13.00
996 64.5700 192.00 181.33 13.00
997 64.6200 185.00 181.13 13.00
998 64.6700 193.00 180.93 13.00
999 64.7200 195.00 180.75 13.00
1000 64.7700 174.00 180.57 12.00
1001 64.8200 187.00 180.40 13.00
1002 64.8700 187.00 180.23 13.00
1003 64.9200 180.00 180.07 12.00
1004 64.9700 184.00 179.91 13.00
1005 65.0200 188.00 179.76 13.00
1006 65.0700 182.00 179.61 13.00
1007 65.1200 188.00 179.47 13.00
1008 65.1700 183.00 179.33 13.00
1009 65.2200 169.00 179.20 12.00
1010 65.2700 193.00 179.06 13.00
1011 65.3200 180.00 178.93 12.00
1012 65.3700 190.00 178.81 13.00
1013 65.4200 201.00 178.69 13.00
1014 65.4700 192.00 178.57 13.00
1015 65.5200 181.00 178.45 12.00
1016 65.5700 178.00 176.05 12.00
1017 65.6200 175.00 175.99 12.00
1018 65.6700 154.00 175.94 11.00
1019 65.7200 188.00 175.89 13.00
1020 65.7700 188.00 175.84 13.00
1021 65.8200 204.00 175.79 13.00
1022 65.8700 188.00 175.74 13.00
1023 65.9200 192.00 175.69 13.00
1024 65.9700 184.00 175.64 13.00
1025 66.0200 178.00 175.59 12.00
1026 66.0700 199.00 175.54 13.00
1027 66.1200 214.00 175.50 14.00
1028 66.1700 189.00 175.45 13.00
1029 66.2200 158.00 175.40 12.00
1030 66.2700 177.00 175.36 12.00
1031 66.3200 192.00 175.32 13.00
1032 66.3700 197.00 175.27 18.00
1033 66.4200 168.00 175.23 12.00
1034 66.4700 165.00 175.19 12.00
1035 66.5200 175.00 175.15 12.00
1036 66.5700 170.00 175.11 12.00
1037 66.6200 159.00 175.07 11.00
1038 66.6700 168.00 175.04 12.00
1039 66.7200 175.00 175.00 12.00
1040 66.7700 173.00 174.97 12.00
1041 66.8200 193.00 174.94 13.00
1042 66.8700 188.00 174.91 12.00
1043 66.9200 185.00 174.88 12.00
1044 66.9700 177.00 174.86 12.00
1045 67.0200 177.00 174.84 12.00
1046 67.0700 192.00 174.83 13.00
1047 67.1200 188.00 174.82 12.00
1048 67.1700 181.00 174.81 12.00
1049 67.2200 175.00 174.81 12.00
1050 67.2700 178.00 174.81 12.00
1051 67.3200 169.00 174.82 12.00
1052 67.3700 178.00 174.84 12.00
1053 67.4200 187.00 174.87 12.00
1054 67.4700 182.00 174.90 12.00
1055 67.5200 190.00 174.95 12.00
1056 67.5700 179.00 175.02 12.00
1057 67.6200 171.00 175.10 12.00
1058 67.6700 181.00 175.20 12.00
1059 67.7200 186.00 175.32 12.00
1060 67.7700 184.00 175.49 12.00
1061 67.8200 176.00 175.69 12.00
1062 67.8700 172.00 175.97 12.00
1063 67.9200 189.00 176.34 12.00
1064 67.9700 188.00 176.85 12.00
1065 68.0200 177.00 177.59 12.00
1066 68.0700 182.00 178.64 12.00
1067 68.1200 173.00 180.14 12.00
1068 68.1700 194.00 182.23 13.00
1069 68.2200 197.00 185.09 13.00
1070 68.2700 194.00 190.77 13.00
1071 68.3200 210.00 195.62 13.00
1072 68.3700 221.00 201.51 13.00
1073 68.4200 216.00 208.35 13.00
1074 68.4700 222.00 215.83 13.00
1075 68.5200 239.00 223.47 14.00
1076 68.5700 248.00 230.54 14.00
1077 68.6200 247.00 236.05 14.00
1078 68.6700 248.00 239.00 14.00
1079 68.7200 241.00 238.76 14.00
1080 68.7700 227.00 235.37 14.00
1081 68.8200 226.00 229.58 14.00
1082 68.8700 221.00 222.41 13.00
1083 68.9200 212.00 214.80 13.00
1084 68.9700 202.00 207.45 13.00
1085 69.0200 197.00 200.81 13.00
1086 69.0700 209.00 195.14 13.00
1087 69.1200 192.00 190.53 12.00
1088 69.1700 172.00 186.93 12.00
1089 69.2200 176.00 184.24 12.00
1090 69.2700 179.00 182.29 12.00
1091 69.3200 191.00 180.92 12.00
1092 69.3700 199.00 179.99 13.00
1093 69.4200 187.00 179.36 12.00
1094 69.4700 189.00 178.95 12.00
1095 69.5200 189.00 178.69 12.00
1096 69.5700 187.00 178.54 12.00
1097 69.6200 177.00 178.47 12.00
1098 69.6700 165.00 178.47 12.00
1099 69.7200 169.00 178.51 12.00
1100 69.7700 187.00 178.61 12.00
1101 69.8200 175.00 178.75 12.00
1102 69.8700 173.00 178.93 12.00
1103 69.9200 183.00 179.16 12.00
1104 69.9700 172.00 179.44 12.00
1105 70.0200 187.00 179.77 12.00
1106 70.0700 187.00 180.15 12.00
1107 70.1200 188.00 180.59 12.00
1108 70.1700 181.00 181.10 12.00
1109 70.2200 180.00 181.67 12.00
1110 70.2700 187.00 182.33 12.00
1111 70.3200 192.00 183.08 13.00
1112 70.3700 193.00 183.94 13.00
1113 70.4200 183.00 184.91 12.00
1114 70.4700 194.00 186.02 13.00
1115 70.5200 194.00 187.30 13.00
1116 70.5700 192.00 188.76 13.00
1117 70.6200 199.00 190.45 13.00
1118 70.6700 199.00 192.41 13.00
1119 70.7200 194.00 194.70 13.00
1120 70.7700 206.00 197.38 13.00
1121 70.8200 210.00 200.57 13.00
1122 70.8700 213.00 204.41 13.00
1123 70.9200 221.00 209.16 13.00
1124 70.9700 244.00 215.34 14.00
1125 71.0200 260.00 223.88 15.00
1126 71.0700 277.00 236.61 15.00
1127 71.1200 304.00 256.84 16.00
1128 71.1700 329.00 289.97 16.00
1129 71.2200 379.00 343.94 17.00
1130 71.2700 462.00 428.69 19.00
1131 71.3200 595.00 554.34 22.00
1132 71.3700 737.00 727.48 24.00
1133 71.4200 927.00 946.57 27.00
1134 71.4700 1169.00 1197.51 31.00
1135 71.5200 1345.00 1450.33 33.00
1136 71.5700 1544.00 1659.05 35.00
1137 71.6200 1603.00 1769.10 36.00
1138 71.6700 1575.00 1743.69 36.00
1139 71.7200 1429.00 1591.85 34.00
1140 71.7700 1200.00 1360.84 31.00
1141 71.8200 1030.00 1104.03 29.00
1142 71.8700 806.00 861.88 25.00
1143 71.9200 601.00 658.39 22.00
1144 71.9700 474.00 502.64 20.00
1145 72.0200 400.00 392.69 18.00
1146 72.0700 331.00 320.14 16.00
1147 72.1200 288.00 274.62 15.00
1148 72.1700 272.00 246.80 15.00
1149 72.2200 231.00 229.63 14.00
1150 72.2700 215.00 218.55 13.00
1151 72.3200 216.00 210.87 13.00
1152 72.3700 215.00 205.13 13.00
1153 72.4200 210.00 200.60 13.00
1154 72.4700 204.00 196.86 13.00
1155 72.5200 171.00 193.71 12.00
1156 72.5700 174.00 191.03 12.00
1157 72.6200 188.00 188.71 12.00
1158 72.6700 197.00 186.69 13.00
1159 72.7200 180.00 184.92 12.00
1160 72.7700 164.00 183.36 12.00
1161 72.8200 188.00 181.98 12.00
1162 72.8700 191.00 180.75 13.00
1163 72.9200 184.00 179.65 12.00
1164 72.9700 168.00 178.66 12.00
1165 73.0200 181.00 177.76 12.00
1166 73.0700 187.00 176.94 12.00
1167 73.1200 190.00 176.20 12.00
1168 73.1700 162.00 175.55 12.00
1169 73.2200 171.00 174.83 12.00
1170 73.2700 156.00 174.26 11.00
1171 73.3200 164.00 173.73 12.00
1172 73.3700 168.00 173.24 12.00
1173 73.4200 165.00 172.79 12.00
1174 73.4700 177.00 172.36 12.00
1175 73.5200 180.00 171.96 12.00
1176 73.5700 176.00 171.59 12.00
1177 73.6200 177.00 171.24 12.00
1178 73.6700 172.00 170.91 12.00
1179 73.7200 156.00 170.60 11.00
1180 73.7700 159.00 170.31 11.00
1181 73.8200 171.00 170.03 12.00
1182 73.8700 166.00 169.76 12.00
1183 73.9200 170.00 169.51 12.00
1184 73.9700 175.00 169.27 12.00
1185 74.0200 160.00 169.04 11.00
1186 74.0700 166.00 168.82 12.00
1187 74.1200 165.00 168.61 12.00
1188 74.1700 176.00 168.41 12.00
1189 74.2200 170.00 168.21 12.00
1190 74.2700 178.00 168.03 12.00
1191 74.3200 185.00 167.85 12.00
1192 74.3700 162.00 167.67 12.00
1193 74.4200 167.00 167.50 12.00
1194 74.4700 168.00 167.34 12.00
1195 74.5200 175.00 167.18 12.00
1196 74.5700 159.00 167.03 11.00
1197 74.6200 160.00 166.88 11.00
1198 74.6700 157.00 166.74 11.00
1199 74.7200 161.00 166.60 12.00
1200 74.7700 163.00 166.46 12.00
1201 74.8200 159.00 166.33 11.00
1202 74.8700 152.00 166.20 11.00
1203 74.9200 154.00 166.07 11.00
1204 74.9700 145.00 165.95 11.00
1205 75.0200 156.00 163.93 11.00
1206 75.0700 154.00 163.87 11.00
1207 75.1200 160.00 163.81 11.00
1208 75.1700 177.00 163.75 12.00
1209 75.2200 169.00 163.69 12.00
1210 75.2700 153.00 163.63 11.00
1211 75.3200 166.00 163.57 12.00
1212 75.3700 162.00 163.52 12.00
1213 75.4200 162.00 163.46 12.00
1214 75.4700 168.00 163.41 12.00
1215 75.5200 159.00 163.35 11.00
1216 75.5700 168.00 163.31 12.00
1217 75.6200 163.00 163.26 12.00
1218 75.6700 173.00 163.21 12.00
1219 75.7200 165.00 163.17 12.00
1220 75.7700 149.00 163.14 11.00
1221 75.8200 168.00 163.11 12.00
1222 75.8700 172.00 163.08 12.00
1223 75.9200 178.00 163.06 12.00
1224 75.9700 143.00 163.05 11.00
1225 76.0200 157.00 164.06 11.00
1226 76.0700 166.00 164.11 12.00
1227 76.1200 166.00 164.18 12.00
1228 76.1700 161.00 164.32 12.00
1229 76.2200 155.00 164.54 11.00
1230 76.2700 175.00 164.92 12.00
1231 76.3200 179.00 165.54 12.00
1232 76.3700 164.00 166.54 9.00
1233 76.4200 155.00 168.04 11.00
1234 76.4700 162.00 170.18 11.00
1235 76.5200 157.00 173.03 11.00
1236 76.5700 164.00 176.54 11.00
1237 76.6200 173.00 180.48 12.00
1238 76.6700 178.00 184.46 12.00
1239 76.7200 178.00 187.83 12.00
1240 76.7700 168.00 189.85 12.00
1241 76.8200 160.00 189.95 11.00
1242 76.8700 172.00 188.06 12.00
1243 76.9200 187.00 184.74 12.00
1244 76.9700 170.00 180.72 12.00
1245 77.0200 162.00 176.67 11.00
1246 77.0700 169.00 173.01 12.00
1247 77.1200 164.00 169.99 11.00
1248 77.1700 168.00 167.68 12.00
1249 77.2200 183.00 166.02 12.00
1250 77.2700 180.00 164.89 12.00
1251 77.3200 164.00 164.15 11.00
1252 77.3700 164.00 163.67 11.00
1253 77.4200 175.00 163.36 12.00
1254 77.4700 172.00 163.15 12.00
1255 77.5200 174.00 162.99 12.00
1256 77.5700 170.00 162.87 12.00
1257 77.6200 161.00 162.78 11.00
1258 77.6700 162.00 162.70 11.00
1259 77.7200 162.00 162.64 11.00
1260 77.7700 156.00 162.58 11.00
1261 77.8200 144.00 162.54 11.00
1262 77.8700 158.00 162.50 11.00
1263 77.9200 158.00 162.47 11.00
1264 77.9700 155.00 162.45 11.00
1265 78.0200 165.00 162.43 11.00
1266 78.0700 157.00 162.43 11.00
1267 78.1200 158.00 162.42 11.00
1268 78.1700 169.00 162.43 12.00
1269 78.2200 155.00 162.44 11.00
1270 78.2700 159.00 162.46 11.00
1271 78.3200 144.00 162.48 11.00
1272 78.3700 156.00 162.51 11.00
1273 78.4200 154.00 162.55 11.00
1274 78.4700 164.00 164.22 11.00
1275 78.5200 171.00 164.32 12.00
1276 78.5700 163.00 164.42 11.00
1277 78.6200 166.00 164.53 11.00
1278 78.6700 156.00 164.66 11.00
1279 78.7200 173.00 164.79 12.00
1280 78.7700 159.00 164.94 11.00
1281 78.8200 177.00 165.10 12.00
1282 78.8700 171.00 165.28 12.00
1283 78.9200 158.00 165.48 11.00
1284 78.9700 155.00 165.69 11.00
1285 79.0200 151.00 165.92 11.00
1286 79.0700 155.00 166.17 11.00
1287 79.1200 159.00 166.44 11.00
1288 79.1700 161.00 166.74 11.00
1289 79.2200 168.00 167.06 12.00
1290 79.2700 151.00 167.42 11.00
1291 79.3200 169.00 168.66 12.00
1292 79.3700 162.00 169.10 11.00
1293 79.4200 170.00 169.57 12.00
1294 79.4700 164.00 170.09 11.00
1295 79.5200 151.00 170.66 11.00
1296 79.5700 145.00 171.28 11.00
1297 79.6200 166.00 171.96 12.00
1298 79.6700 172.00 172.71 12.00
1299 79.7200 166.00 173.54 12.00
1300 79.7700 156.00 174.46 11.00
1301 79.8200 166.00 175.47 12.00
1302 79.8700 169.00 176.60 12.00
1303 79.9200 163.00 177.87 11.00
1304 79.9700 161.00 179.29 11.00
1305 80.0200 158.00 180.90 11.00
1306 80.0700 163.00 182.76 11.00
1307 80.1200 187.00 184.92 12.00
1308 80.1700 172.00 187.49 12.00
1309 80.2200 171.00 190.63 12.00
1310 80.2700 189.00 194.56 12.00
1311 80.3200 169.00 199.62 12.00
1312 80.3700 201.00 206.26 13.00
1313 80.4200 194.00 215.11 12.00
1314 80.4700 203.00 226.91 13.00
1315 80.5200 223.00 242.69 13.00
1316 80.5700 236.00 263.46 14.00
1317 80.6200 255.00 290.30 14.00
1318 80.6700 275.00 324.16 15.00
1319 80.7200 322.00 365.70 16.00
1320 80.7700 366.00 415.02 17.00
1321 80.8200 433.00 471.55 19.00
1322 80.8700 489.00 533.75 20.00
1323 80.9200 530.00 598.90 21.00
1324 80.9700 632.00 662.97 22.00
1325 81.0200 693.00 720.43 23.00
1326 81.0700 788.00 764.67 25.00
1327 81.1200 817.00 789.17 26.00
1328 81.1700 793.00 789.74 25.00
1329 81.2200 805.00 766.40 25.00
1330 81.2700 750.00 723.38 24.00
1331 81.3200 677.00 667.17 23.00
1332 81.3700 628.00 604.43 31.00
1333 81.4200 533.00 540.70 20.00
1334 81.4700 484.00 480.03 19.00
1335 81.5200 417.00 425.15 18.00
1336 81.5700 364.00 377.62 17.00
1337 81.6200 320.00 338.07 16.00
1338 81.6700 322.00 306.44 16.00
1339 81.7200 317.00 282.20 16.00
1340 81.7700 261.00 264.54 14.00
1341 81.8200 280.00 252.66 15.00
1342 81.8700 259.00 245.87 14.00
1343 81.9200 273.00 243.78 14.00
1344 81.9700 254.00 246.29 14.00
1345 82.0200 274.00 253.68 14.00
1346 82.0700 280.00 266.41 15.00
1347 82.1200 300.00 285.09 15.00
1348 82.1700 333.00 310.22 16.00
1349 82.2200 347.00 342.05 16.00
1350 82.2700 369.00 380.34 17.00
1351 82.3200 448.00 424.22 18.00
1352 82.3700 470.00 472.08 19.00
1353 82.4200 530.00 521.95 20.00
1354 82.4700 564.00 572.39 21.00
1355 82.5200 629.00 622.97 22.00
1356 82.5700 641.00 673.75 22.00
1357 82.6200 707.00 723.86 23.00
1358 82.6700 674.00 770.63 23.00
1359 82.7200 735.00 809.45 24.00
1360 82.7700 747.00 834.35 24.00
1361 82.8200 826.00 839.82 25.00
1362 82.8700 797.00 823.07 25.00
1363 82.9200 741.00 785.41 24.00
1364 82.9700 685.00 731.61 23.00
1365 83.0200 634.00 667.95 22.00
1366 83.0700 560.00 600.31 21.00
1367 83.1200 470.00 533.47 19.00
1368 83.1700 397.00 470.83 17.00
1369 83.2200 370.00 414.58 17.00
1370 83.2700 303.00 365.93 15.00
1371 83.3200 287.00 325.24 15.00
1372 83.3700 240.00 292.21 14.00
1373 83.4200 251.00 266.14 14.00
1374 83.4700 207.00 246.03 13.00
1375 83.5200 214.00 230.81 13.00
1376 83.5700 198.00 219.44 12.00
1377 83.6200 178.00 211.01 12.00
1378 83.6700 176.00 204.77 12.00
1379 83.7200 186.00 200.12 12.00
1380 83.7700 176.00 196.63 12.00
1381 83.8200 171.00 193.98 11.00
1382 83.8700 174.00 191.96 12.00
1383 83.9200 178.00 190.43 12.00
1384 83.9700 183.00 189.29 12.00
1385 84.0200 161.00 188.50 11.00
1386 84.0700 172.00 188.03 11.00
1387 84.1200 171.00 187.86 11.00
1388 84.1700 182.00 188.00 12.00
1389 84.2200 180.00 188.50 12.00
1390 84.2700 186.00 189.39 12.00
1391 84.3200 166.00 190.78 11.00
1392 84.3700 183.00 192.77 12.00
1393 84.4200 198.00 195.54 12.00
1394 84.4700 187.00 199.34 12.00
1395 84.5200 207.00 204.43 13.00
1396 84.5700 219.00 211.19 13.00
1397 84.6200 220.00 220.07 13.00
1398 84.6700 226.00 231.55 13.00
1399 84.7200 262.00 246.17 14.00
1400 84.7700 269.00 264.44 14.00
1401 84.8200 293.00 286.85 15.00
1402 84.8700 314.00 313.74 15.00
1403 84.9200 359.00 345.27 17.00
1404 84.9700 362.00 381.32 17.00
1405 85.0200 413.00 421.45 18.00
1406 85.0700 466.00 464.80 19.00
1407 85.1200 529.00 509.99 20.00
1408 85.1700 572.00 555.11 21.00
1409 85.2200 573.00 597.60 21.00
1410 85.2700 634.00 634.33 22.00
1411 85.3200 689.00 661.86 23.00
1412 85.3700 693.00 677.07 23.00
1413 85.4200 719.00 677.99 23.00
1414 85.4700 698.00 664.45 23.00
1415 85.5200 636.00 638.17 22.00
1416 85.5700 618.00 602.14 22.00
1417 85.6200 604.00 559.79 21.00
1418 85.6700 541.00 514.34 20.00
1419 85.7200 456.00 468.42 19.00
1420 85.7700 417.00 424.07 18.00
1421 85.8200 366.00 382.73 17.00
1422 85.8700 319.00 345.71 16.00
1423 85.9200 295.00 312.80 15.00
1424 85.9700 254.00 284.50 14.00
1425 86.0200 237.00 260.70 13.00
1426 86.0700 200.00 241.08 12.00
1427 86.1200 217.00 225.16 13.00
1428 86.1700 201.00 212.45 12.00
1429 86.2200 203.00 202.38 12.00
1430 86.2700 191.00 194.47 12.00
1431 86.3200 206.00 187.26 13.00
1432 86.3700 175.00 182.37 12.00
1433 86.4200 177.00 178.33 12.00
1434 86.4700 171.00 175.19 12.00
1435 86.5200 174.00 172.60 12.00
1436 86.5700 186.00 170.43 12.00
1437 86.6200 165.00 168.57 11.00
1438 86.6700 183.00 166.96 12.00
1439 86.7200 176.00 165.54 12.00
1440 86.7700 176.00 164.26 12.00
1441 86.8200 166.00 163.12 11.00
1442 86.8700 162.00 162.07 11.00
1443 86.9200 154.00 161.12 11.00
1444 86.9700 166.00 160.24 11.00
1445 87.0200 145.00 159.44 11.00
1446 87.0700 152.00 158.69 11.00
1447 87.1200 153.00 158.00 11.00
1448 87.1700 142.00 157.35 10.00
1449 87.2200 166.00 156.75 11.00
1450 87.2700 168.00 156.19 11.00
1451 87.3200 149.00 155.67 11.00
1452 87.3700 157.00 155.18 11.00
1453 87.4200 159.00 154.72 11.00
1454 87.4700 173.00 154.29 12.00
1455 87.5200 166.00 153.88 11.00
1456 87.5700 155.00 153.50 11.00
1457 87.6200 132.00 153.14 10.00
1458 87.6700 137.00 152.79 10.00
1459 87.7200 163.00 152.47 11.00
1460 87.7700 158.00 152.17 11.00
1461 87.8200 159.00 151.88 11.00
1462 87.8700 151.00 151.61 11.00
1463 87.9200 153.00 151.36 11.00
1464 87.9700 163.00 151.12 11.00
1465 88.0200 170.00 150.90 11.00
1466 88.0700 146.00 149.67 11.00
1467 88.1200 161.00 149.50 11.00
1468 88.1700 151.00 149.35 11.00
1469 88.2200 139.00 149.23 10.00
1470 88.2700 167.00 149.15 11.00
1471 88.3200 143.00 149.12 11.00
1472 88.3700 156.00 149.15 11.00
1473 88.4200 167.00 149.29 11.00
1474 88.4700 150.00 149.55 11.00
1475 88.5200 168.00 149.99 11.00
1476 88.5700 167.00 150.61 11.00
1477 88.6200 146.00 152.47 11.00
1478 88.6700 161.00 153.57 11.00
1479 88.7200 163.00 154.88 11.00
1480 88.7700 150.00 156.35 11.00
1481 88.8200 178.00 157.87 12.00
1482 88.8700 149.00 159.30 11.00
1483 88.9200 163.00 160.46 11.00
1484 88.9700 160.00 161.16 11.00
1485 89.0200 175.00 161.22 12.00
1486 89.0700 152.00 160.63 11.00
1487 89.1200 160.00 159.49 11.00
1488 89.1700 152.00 157.98 11.00
1489 89.2200 169.00 156.31 11.00
1490 89.2700 164.00 154.64 11.00
1491 89.3200 157.00 153.08 11.00
1492 89.3700 140.00 151.71 10.00
1493 89.4200 163.00 150.56 11.00
1494 89.4700 166.00 149.65 11.00
1495 89.5200 162.00 148.94 11.00
1496 89.5700 148.00 148.41 11.00
1497 89.6200 149.00 148.03 11.00
1498 89.6700 152.00 147.76 11.00
1499 89.7200 164.00 147.57 11.00
1500 89.7700 151.00 149.40 11.00
1501 89.8200 150.00 149.34 11.00
1502 89.8700 158.00 149.31 11.00
1503 89.9200 152.00 149.30 11.00
1504 89.9700 159.00 149.31 11.00
1505 90.0200 152.00 149.33 11.00
1506 90.0700 149.00 149.37 11.00
1507 90.1200 141.00 149.41 10.00
1508 90.1700 138.00 149.48 10.00
1509 90.2200 136.00 149.55 10.00
1510 90.2700 156.00 149.63 11.00
1511 90.3200 148.00 149.73 11.00
1512 90.3700 138.00 149.85 10.00
1513 90.4200 174.00 149.97 12.00
1514 90.4700 162.00 150.12 11.00
1515 90.5200 156.00 150.27 11.00
1516 90.5700 155.00 150.45 11.00
1517 90.6200 153.00 150.64 11.00
1518 90.6700 152.00 150.85 11.00
1519 90.7200 158.00 151.08 11.00
1520 90.7700 161.00 151.33 11.00
1521 90.8200 152.00 151.60 11.00
1522 90.8700 155.00 151.90 11.00
1523 90.9200 143.00 152.23 11.00
1524 90.9700 161.00 152.59 11.00
1525 91.0200 131.00 152.98 10.00
1526 91.0700 153.00 153.41 11.00
1527 91.1200 150.00 153.88 11.00
1528 91.1700 170.00 154.40 11.00
1529 91.2200 147.00 154.98 11.00
1530 91.2700 158.00 155.62 11.00
1531 91.3200 149.00 156.34 11.00
1532 91.3700 128.00 157.15 10.00
1533 91.4200 142.00 158.09 11.00
1534 91.4700 171.00 159.17 12.00
1535 91.5200 155.00 159.59 11.00
1536 91.5700 173.00 161.12 12.00
1537 91.6200 169.00 162.97 12.00
1538 91.6700 140.00 165.21 11.00
1539 91.7200 170.00 167.96 12.00
1540 91.7700 179.00 171.35 12.00
1541 91.8200 155.00 175.50 11.00
1542 91.8700 177.00 180.60 12.00
1543 91.9200 161.00 186.80 11.00
1544 91.9700 202.00 194.27 13.00
1545 92.0200 214.00 203.18 13.00
1546 92.0700 201.00 213.64 13.00
1547 92.1200 214.00 225.75 13.00
1548 92.1700 218.00 239.52 13.00
1549 92.2200 243.00 254.89 14.00
1550 92.2700 233.00 271.80 14.00
1551 92.3200 286.00 289.78 15.00
1552 92.3700 274.00 308.52 15.00
1553 92.4200 300.00 327.46 16.00
1554 92.4700 306.00 345.89 16.00
1555 92.5200 296.00 362.96 15.00
1556 92.5700 354.00 377.74 17.00
1557 92.6200 378.00 389.37 17.00
1558 92.6700 347.00 397.29 17.00
1559 92.7200 379.00 401.44 18.00
1560 92.7700 397.00 402.47 18.00
1561 92.8200 388.00 401.66 18.00
1562 92.8700 398.00 400.78 18.00
1563 92.9200 414.00 401.81 18.00
1564 92.9700 401.00 406.63 18.00
1565 93.0200 410.00 416.79 18.00
1566 93.0700 430.00 433.26 19.00
1567 93.1200 472.00 456.26 20.00
1568 93.1700 553.00 485.07 21.00
1569 93.2200 605.00 517.94 22.00
1570 93.2700 637.00 551.94 23.00
1571 93.3200 698.00 583.04 24.00
1572 93.3700 714.00 606.28 24.00
1573 93.4200 720.00 616.76 24.00
1574 93.4700 652.00 611.18 23.00
1575 93.5200 571.00 589.29 22.00
1576 93.5700 560.00 553.93 21.00
1577 93.6200 549.00 509.77 21.00
1578 93.6700 482.00 461.57 20.00
1579 93.7200 439.00 413.36 19.00
1580 93.7700 371.00 368.15 17.00
1581 93.8200 350.00 327.93 17.00
1582 93.8700 322.00 293.80 16.00
1583 93.9200 281.00 266.10 15.00
1584 93.9700 279.00 244.57 15.00
1585 94.0200 266.00 228.59 15.00
1586 94.0700 264.00 217.33 15.00
1587 94.1200 241.00 209.96 14.00
1588 94.1700 247.00 205.71 14.00
1589 94.2200 222.00 203.97 13.00
1590 94.2700 225.00 204.31 14.00
1591 94.3200 218.00 206.44 13.00
1592 94.3700 215.00 210.24 13.00
1593 94.4200 237.00 215.66 14.00
1594 94.4700 257.00 222.75 14.00
1595 94.5200 264.00 231.56 15.00
1596 94.5700 257.00 242.15 14.00
1597 94.6200 232.00 254.57 14.00
1598 94.6700 311.00 268.78 16.00
1599 94.7200 285.00 284.72 15.00
1600 94.7700 289.00 302.19 15.00
1601 94.8200 308.00 320.92 16.00
1602 94.8700 318.00 340.50 16.00
1603 94.9200 347.00 360.40 17.00
1604 94.9700 353.00 379.95 17.00
1605 95.0200 346.00 398.32 17.00
1606 95.0700 403.00 414.65 18.00
1607 95.1200 381.00 428.11 18.00
1608 95.1700 421.00 438.10 18.00
1609 95.2200 440.00 444.48 19.00
1610 95.2700 438.00 447.67 19.00
1611 95.3200 446.00 448.63 19.00
1612 95.3700 470.00 448.77 20.00
1613 95.4200 497.00 449.66 20.00
1614 95.4700 520.00 452.91 21.00
1615 95.5200 463.00 459.99 19.00
1616 95.5700 525.00 472.14 21.00
1617 95.6200 528.00 490.33 21.00
1618 95.6700 503.00 515.22 20.00
1619 95.7200 543.00 547.07 21.00
1620 95.7700 561.00 585.74 21.00
1621 95.8200 607.00 630.63 22.00
1622 95.8700 616.00 680.58 22.00
1623 95.9200 634.00 733.87 23.00
1624 95.9700 683.00 788.14 24.00
1625 96.0200 720.00 840.51 24.00
1626 96.0700 762.00 887.83 25.00
1627 96.1200 857.00 927.29 26.00
1628 96.1700 906.00 957.06 27.00
1629 96.2200 903.00 976.78 27.00
1630 96.2700 918.00 987.55 27.00
1631 96.3200 997.00 991.32 28.00
1632 96.3700 973.00 990.17 28.00
1633 96.4200 920.00 985.72 27.00
1634 96.4700 990.00 978.77 29.00
1635 96.5200 948.00 969.27 28.00
1636 96.5700 919.00 956.46 27.00
1637 96.6200 1007.00 939.08 29.00
1638 96.6700 907.00 915.88 27.00
1639 96.7200 911.00 886.37 27.00
1640 96.7700 840.00 849.68 26.00
1641 96.8200 862.00 806.91 27.00
1642 96.8700 829.00 759.46 26.00
1643 96.9200 780.00 709.07 25.00
1644 96.9700 704.00 657.48 24.00
1645 97.0200 670.00 606.31 23.00
1646 97.0700 602.00 556.85 22.00
1647 97.1200 540.00 510.16 21.00
1648 97.1700 494.00 467.05 20.00
1649 97.2200 412.00 428.08 18.00
1650 97.2700 337.00 393.64 17.00
1651 97.3200 346.00 363.91 17.00
1652 97.3700 305.00 338.92 16.00
1653 97.4200 282.00 318.51 15.00
1654 97.4700 272.00 302.36 15.00
1655 97.5200 258.00 290.05 15.00
1656 97.5700 282.00 280.97 15.00
1657 97.6200 279.00 274.44 15.00
1658 97.6700 270.00 269.67 15.00
1659 97.7200 286.00 265.77 15.00
1660 97.7700 254.00 261.88 14.00
1661 97.8200 268.00 257.26 15.00
1662 97.8700 265.00 251.43 15.00
1663 97.9200 235.00 244.32 14.00
1664 97.9700 240.00 236.13 14.00
1665 98.0200 245.00 227.27 14.00
1666 98.0700 228.00 218.19 14.00
1667 98.1200 221.00 209.25 13.00
1668 98.1700 203.00 200.77 13.00
1669 98.2200 190.00 193.17 12.00
1670 98.2700 202.00 186.15 13.00
1671 98.3200 189.00 179.98 12.00
1672 98.3700 194.00 174.13 13.00
1673 98.4200 187.00 169.65 12.00
1674 98.4700 184.00 165.89 12.00
1675 98.5200 181.00 162.77 12.00
1676 98.5700 159.00 160.19 11.00
1677 98.6200 159.00 158.04 11.00
1678 98.6700 151.00 156.24 11.00
1679 98.7200 157.00 154.71 11.00
1680 98.7700 162.00 153.39 12.00
1681 98.8200 151.00 152.23 11.00
1682 98.8700 140.00 151.20 11.00
1683 98.9200 158.00 150.27 11.00
1684 98.9700 173.00 149.42 12.00
1685 99.0200 146.00 148.64 11.00
1686 99.0700 143.00 147.92 11.00
1687 99.1200 144.00 147.25 11.00
1688 99.1700 139.00 146.62 11.00
1689 99.2200 167.00 146.03 12.00
1690 99.2700 153.00 145.48 11.00
1691 99.3200 147.00 144.97 11.00
1692 99.3700 146.00 144.57 11.00
1693 99.4200 160.00 144.12 11.00
1694 99.4700 148.00 143.69 11.00
1695 99.5200 156.00 143.29 11.00
1696 99.5700 171.00 142.55 12.00
1697 99.6200 175.00 142.20 12.00
1698 99.6700 154.00 141.87 11.00
1699 99.7200 152.00 141.56 11.00
1700 99.7700 150.00 141.27 11.00
1701 99.8200 143.00 141.00 11.00
1702 99.8700 148.00 140.75 11.00
1703 99.9200 143.00 140.51 11.00
1704 99.9700 152.00 140.30 11.00
1705 100.0200 158.00 140.09 11.00
1706 100.0700 153.00 139.91 11.00
1707 100.1200 152.00 139.74 11.00
1708 100.1700 150.00 139.59 11.00
1709 100.2200 155.00 139.45 11.00
1710 100.2700 149.00 139.32 11.00
1711 100.3200 151.00 139.22 11.00
1712 100.3700 160.00 139.13 11.00
1713 100.4200 173.00 139.05 12.00
1714 100.4700 147.00 139.02 11.00
1715 100.5200 150.00 138.98 11.00
1716 100.5700 149.00 138.96 11.00
1717 100.6200 127.00 138.96 10.00
1718 100.6700 156.00 138.98 11.00
1719 100.7200 152.00 139.02 11.00
1720 100.7700 175.00 139.08 12.00
1721 100.8200 138.00 139.17 11.00
1722 100.8700 150.00 139.29 11.00
1723 100.9200 154.00 139.44 11.00
1724 100.9700 163.00 139.62 12.00
1725 101.0200 157.00 139.84 11.00
1726 101.0700 162.00 140.11 12.00
1727 101.1200 140.00 140.43 11.00
1728 101.1700 137.00 140.82 11.00
1729 101.2200 137.00 141.30 11.00
1730 101.2700 171.00 141.89 12.00
1731 101.3200 168.00 142.64 12.00
1732 101.3700 164.00 143.61 12.00
1733 101.4200 170.00 144.88 12.00
1734 101.4700 162.00 146.57 11.00
1735 101.5200 122.00 148.82 10.00
1736 101.5700 143.00 151.82 11.00
1737 101.6200 163.00 155.80 11.00
1738 101.6700 164.00 160.99 11.00
1739 101.7200 165.00 167.68 11.00
1740 101.7700 167.00 176.09 11.00
1741 101.8200 210.00 186.46 13.00
1742 101.8700 207.00 198.89 13.00
1743 101.9200 193.00 213.48 12.00
1744 101.9700 229.00 229.89 13.00
1745 102.0200 239.00 247.84 14.00
1746 102.0700 257.00 266.77 14.00
1747 102.1200 253.00 285.84 14.00
1748 102.1700 277.00 304.00 15.00
1749 102.2200 307.00 319.61 15.00
1750 102.2700 323.00 332.17 16.00
1751 102.3200 312.00 340.23 16.00
1752 102.3700 331.00 343.24 16.00
1753 102.4200 329.00 341.29 16.00
1754 102.4700 305.00 334.97 15.00
1755 102.5200 297.00 325.17 15.00
1756 102.5700 323.00 311.92 16.00
1757 102.6200 295.00 297.91 15.00
1758 102.6700 267.00 283.10 14.00
1759 102.7200 275.00 268.28 15.00
1760 102.7700 274.00 254.10 15.00
1761 102.8200 246.00 241.04 14.00
1762 102.8700 227.00 229.38 13.00
1763 102.9200 226.00 219.24 13.00
1764 102.9700 229.00 210.62 13.00
1765 103.0200 240.00 203.45 14.00
1766 103.0700 230.00 197.59 13.00
1767 103.1200 241.00 192.97 14.00
1768 103.1700 232.00 189.52 13.00
1769 103.2200 215.00 187.24 13.00
1770 103.2700 228.00 186.20 13.00
1771 103.3200 235.00 186.51 14.00
1772 103.3700 203.00 188.32 13.00
1773 103.4200 218.00 191.82 13.00
1774 103.4700 243.00 197.05 14.00
1775 103.5200 218.00 204.34 13.00
1776 103.5700 213.00 213.61 13.00
1777 103.6200 210.00 224.77 13.00
1778 103.6700 240.00 237.59 14.00
1779 103.7200 244.00 251.65 14.00
1780 103.7700 269.00 266.31 14.00
1781 103.8200 269.00 280.75 14.00
1782 103.8700 263.00 294.52 14.00
1783 103.9200 268.00 305.26 14.00
1784 103.9700 275.00 312.35 15.00
1785 104.0200 285.00 314.81 15.00
1786 104.0700 284.00 311.25 15.00
1787 104.1200 293.00 303.80 15.00
1788 104.1700 285.00 292.30 15.00
1789 104.2200 251.00 277.89 14.00
1790 104.2700 266.00 261.78 14.00
1791 104.3200 254.00 245.03 14.00
1792 104.3700 205.00 228.55 13.00
1793 104.4200 236.00 213.01 14.00
1794 104.4700 212.00 198.87 13.00
1795 104.5200 205.00 186.43 13.00
1796 104.5700 174.00 175.80 12.00
1797 104.6200 186.00 166.98 12.00
1798 104.6700 173.00 159.85 12.00
1799 104.7200 167.00 154.22 11.00
1800 104.7700 172.00 149.88 12.00
1801 104.8200 170.00 146.62 12.00
1802 104.8700 143.00 144.24 11.00
1803 104.9200 146.00 142.55 11.00
1804 104.9700 152.00 141.42 11.00
1805 105.0200 146.00 141.50 11.00
1806 105.0700 140.00 141.24 10.00
1807 105.1200 179.00 141.34 12.00
1808 105.1700 175.00 141.79 12.00
1809 105.2200 174.00 142.61 12.00
1810 105.2700 166.00 143.81 11.00
1811 105.3200 162.00 145.44 11.00
1812 105.3700 153.00 147.51 11.00
1813 105.4200 153.00 150.07 11.00
1814 105.4700 163.00 153.10 11.00
1815 105.5200 166.00 156.61 11.00
1816 105.5700 164.00 160.57 11.00
1817 105.6200 169.00 164.89 11.00
1818 105.6700 172.00 169.47 12.00
1819 105.7200 178.00 174.17 12.00
1820 105.7700 177.00 178.79 12.00
1821 105.8200 169.00 183.09 11.00
1822 105.8700 170.00 186.79 12.00
1823 105.9200 177.00 189.59 12.00
1824 105.9700 200.00 191.22 13.00
1825 106.0200 188.00 191.50 12.00
1826 106.0700 172.00 190.40 12.00
1827 106.1200 181.00 188.03 12.00
1828 106.1700 177.00 184.60 12.00
1829 106.2200 186.00 180.41 12.00
1830 106.2700 165.00 175.76 11.00
1831 106.3200 174.00 170.89 12.00
1832 106.3700 182.00 166.04 17.00
1833 106.4200 166.00 161.37 12.00
1834 106.4700 162.00 157.00 12.00
1835 106.5200 162.00 153.03 12.00
1836 106.5700 164.00 149.50 12.00
1837 106.6200 167.00 146.43 12.00
1838 106.6700 147.00 143.82 11.00
1839 106.7200 144.00 141.64 11.00
1840 106.7700 134.00 139.86 11.00
1841 106.8200 131.00 138.43 10.00
1842 106.8700 133.00 137.29 11.00
1843 106.9200 142.00 136.41 11.00
1844 106.9700 156.00 136.38 11.00
1845 107.0200 149.00 136.37 11.00
1846 107.0700 138.00 136.01 11.00
1847 107.1200 136.00 135.76 11.00
1848 107.1700 112.00 135.60 10.00
1849 107.2200 125.00 135.51 10.00
1850 107.2700 136.00 135.49 11.00
1851 107.3200 140.00 135.52 11.00
1852 107.3700 129.00 135.61 10.00
1853 107.4200 135.00 135.75 11.00
1854 107.4700 131.00 135.95 10.00
1855 107.5200 129.00 136.20 10.00
1856 107.5700 129.00 136.52 10.00
1857 107.6200 135.00 136.92 11.00
1858 107.6700 137.00 137.38 11.00
1859 107.7200 127.00 137.93 10.00
1860 107.7700 137.00 138.57 11.00
1861 107.8200 145.00 139.30 11.00
1862 107.8700 151.00 140.13 11.00
1863 107.9200 147.00 141.05 11.00
1864 107.9700 142.00 141.87 11.00
1865 108.0200 127.00 142.99 10.00
1866 108.0700 140.00 144.18 11.00
1867 108.1200 135.00 145.46 11.00
1868 108.1700 138.00 146.81 11.00
1869 108.2200 147.00 148.21 11.00
1870 108.2700 139.00 149.65 11.00
1871 108.3200 141.00 151.11 11.00
1872 108.3700 145.00 152.57 11.00
1873 108.4200 148.00 154.03 11.00
1874 108.4700 158.00 155.47 11.00
1875 108.5200 158.00 156.91 11.00
1876 108.5700 156.00 158.38 11.00
1877 108.6200 145.00 159.92 11.00
1878 108.6700 134.00 161.59 11.00
1879 108.7200 162.00 163.45 12.00
1880 108.7700 154.00 165.83 11.00
1881 108.8200 161.00 168.27 11.00
1882 108.8700 161.00 170.98 12.00
1883 108.9200 156.00 174.12 11.00
1884 108.9700 169.00 177.60 12.00
1885 109.0200 174.00 181.39 12.00
1886 109.0700 190.00 185.40 12.00
1887 109.1200 194.00 189.54 13.00
1888 109.1700 197.00 193.65 13.00
1889 109.2200 205.00 197.57 13.00
1890 109.2700 227.00 201.09 14.00
1891 109.3200 205.00 204.00 13.00
1892 109.3700 216.00 206.08 13.00
1893 109.4200 223.00 207.18 13.00
1894 109.4700 217.00 207.22 13.00
1895 109.5200 209.00 206.22 13.00
1896 109.5700 192.00 204.29 12.00
1897 109.6200 209.00 201.61 13.00
1898 109.6700 223.00 198.40 13.00
1899 109.7200 218.00 194.87 13.00
1900 109.7700 224.00 191.23 13.00
1901 109.8200 218.00 187.65 13.00
1902 109.8700 213.00 184.08 13.00
1903 109.9200 205.00 181.06 13.00
1904 109.9700 189.00 178.49 12.00
1905 110.0200 198.00 176.46 13.00
1906 110.0700 199.00 175.04 13.00
1907 110.1200 188.00 174.32 12.00
1908 110.1700 184.00 174.37 12.00
1909 110.2200 185.00 175.29 12.00
1910 110.2700 174.00 177.17 12.00
1911 110.3200 184.00 180.13 12.00
1912 110.3700 179.00 184.33 12.00
1913 110.4200 174.00 189.91 12.00
1914 110.4700 183.00 197.07 12.00
1915 110.5200 205.00 206.01 13.00
1916 110.5700 197.00 216.94 13.00
1917 110.6200 188.00 230.05 12.00
1918 110.6700 221.00 245.53 13.00
1919 110.7200 246.00 263.52 14.00
1920 110.7700 246.00 284.08 14.00
1921 110.8200 309.00 307.24 16.00
1922 110.8700 333.00 332.90 16.00
1923 110.9200 352.00 360.85 17.00
1924 110.9700 367.00 390.75 17.00
1925 111.0200 427.00 422.13 18.00
1926 111.0700 461.00 454.35 19.00
1927 111.1200 488.00 486.57 20.00
1928 111.1700 539.00 517.82 20.00
1929 111.2200 573.00 546.96 21.00
1930 111.2700 586.00 572.82 21.00
1931 111.3200 614.00 594.33 22.00
1932 111.3700 596.00 610.75 22.00
1933 111.4200 644.00 621.80 22.00
1934 111.4700 638.00 627.83 22.00
1935 111.5200 635.00 629.67 22.00
1936 111.5700 637.00 628.49 22.00
1937 111.6200 632.00 625.55 22.00
1938 111.6700 610.00 622.01 22.00
1939 111.7200 593.00 618.82 21.00
1940 111.7700 611.00 616.65 22.00
1941 111.8200 618.00 615.97 22.00
1942 111.8700 614.00 616.95 22.00
1943 111.9200 644.00 619.58 22.00
1944 111.9700 676.00 623.52 23.00
1945 112.0200 686.00 628.18 23.00
1946 112.0700 700.00 632.66 23.00
1947 112.1200 702.00 635.74 23.00
1948 112.1700 708.00 636.22 23.00
1949 112.2200 686.00 632.78 23.00
1950 112.2700 664.00 624.43 23.00
1951 112.3200 653.00 610.67 22.00
1952 112.3700 619.00 591.54 22.00
1953 112.4200 580.00 567.64 21.00
1954 112.4700 559.00 539.94 21.00
1955 112.5200 512.00 509.59 20.00
1956 112.5700 463.00 477.73 19.00
1957 112.6200 408.00 445.38 18.00
1958 112.6700 404.00 413.37 18.00
1959 112.7200 375.00 382.57 17.00
1960 112.7700 334.00 353.46 16.00
1961 112.8200 307.00 326.43 16.00
1962 112.8700 281.00 301.76 15.00
1963 112.9200 253.00 279.59 14.00
1964 112.9700 234.00 259.96 14.00
1965 113.0200 217.00 242.83 13.00
1966 113.0700 219.00 228.08 13.00
1967 113.1200 186.00 215.53 12.00
1968 113.1700 194.00 204.99 12.00
1969 113.2200 192.00 196.21 12.00
1970 113.2700 194.00 188.98 13.00
1971 113.3200 191.00 183.05 12.00
1972 113.3700 177.00 178.24 12.00
1973 113.4200 173.00 174.33 12.00
1974 113.4700 173.00 171.18 12.00
1975 113.5200 177.00 168.63 12.00
1976 113.5700 169.00 166.58 12.00
1977 113.6200 167.00 164.92 12.00
1978 113.6700 155.00 163.59 11.00
1979 113.7200 154.00 162.51 11.00
1980 113.7700 152.00 161.65 11.00
1981 113.8200 152.00 160.97 11.00
1982 113.8700 154.00 160.45 11.00
1983 113.9200 149.00 160.07 11.00
1984 113.9700 149.00 159.81 11.00
1985 114.0200 155.00 159.68 11.00
1986 114.0700 150.00 159.65 11.00
1987 114.1200 162.00 159.75 11.00
1988 114.1700 158.00 159.96 11.00
1989 114.2200 160.00 160.29 11.00
1990 114.2700 157.00 160.76 11.00
1991 114.3200 166.00 161.38 12.00
1992 114.3700 171.00 162.17 12.00
1993 114.4200 149.00 163.15 11.00
1994 114.4700 162.00 164.36 12.00
1995 114.5200 172.00 165.84 12.00
1996 114.5700 175.00 167.64 12.00
1997 114.6200 166.00 169.82 12.00
1998 114.6700 173.00 172.45 12.00
1999 114.7200 173.00 175.61 12.00
2000 114.7700 175.00 179.41 12.00
2001 114.8200 177.00 183.95 12.00
2002 114.8700 179.00 189.34 12.00
2003 114.9200 191.00 195.72 12.00
2004 114.9700 192.00 203.20 12.00
2005 115.0200 203.00 211.93 13.00
2006 115.0700 226.00 222.04 13.00
2007 115.1200 227.00 233.63 13.00
2008 115.1700 227.00 246.79 13.00
2009 115.2200 229.00 261.62 14.00
2010 115.2700 253.00 278.12 14.00
2011 115.3200 269.00 296.32 15.00
2012 115.3700 304.00 316.13 15.00
2013 115.4200 334.00 337.45 16.00
2014 115.4700 365.00 360.10 17.00
2015 115.5200 418.00 383.80 18.00
2016 115.5700 424.00 408.25 18.00
2017 115.6200 453.00 432.98 19.00
2018 115.6700 480.00 457.49 19.00
2019 115.7200 545.00 481.16 20.00
2020 115.7700 539.00 503.26 20.00
2021 115.8200 584.00 523.02 21.00
2022 115.8700 612.00 539.63 22.00
2023 115.9200 599.00 552.33 21.00
2024 115.9700 614.00 560.49 22.00
2025 116.0200 633.00 563.71 22.00
2026 116.0700 601.00 561.89 21.00
2027 116.1200 619.00 555.25 22.00
2028 116.1700 580.00 544.30 21.00
2029 116.2200 586.00 530.71 21.00
2030 116.2700 553.00 513.42 21.00
2031 116.3200 507.00 494.24 20.00
2032 116.3700 493.00 473.99 19.00
2033 116.4200 469.00 453.45 20.00
2034 116.4700 443.00 433.27 19.00
2035 116.5200 411.00 414.01 18.00
2036 116.5700 423.00 396.13 19.00
2037 116.6200 382.00 380.04 18.00
2038 116.6700 358.00 366.02 17.00
2039 116.7200 354.00 354.30 17.00
2040 116.7700 339.00 344.99 17.00
2041 116.8200 352.00 338.19 17.00
2042 116.8700 332.00 333.90 17.00
2043 116.9200 321.00 332.08 16.00
2044 116.9700 351.00 332.63 17.00
2045 117.0200 337.00 335.31 17.00
2046 117.0700 342.00 340.12 17.00
2047 117.1200 329.00 346.77 17.00
2048 117.1700 354.00 354.98 17.00
2049 117.2200 371.00 364.49 18.00
2050 117.2700 355.00 375.75 17.00
2051 117.3200 384.00 386.91 18.00
2052 117.3700 371.00 398.36 18.00
2053 117.4200 393.00 409.71 18.00
2054 117.4700 400.00 420.55 18.00
2055 117.5200 434.00 430.47 19.00
2056 117.5700 393.00 439.05 18.00
2057 117.6200 436.00 445.88 19.00
2058 117.6700 430.00 450.62 19.00
2059 117.7200 408.00 452.99 18.00
2060 117.7700 437.00 452.82 19.00
2061 117.8200 457.00 450.06 19.00
2062 117.8700 421.00 444.78 19.00
2063 117.9200 406.00 437.17 18.00
2064 117.9700 424.00 427.48 19.00
2065 118.0200 417.00 416.06 19.00
2066 118.0700 436.00 403.24 19.00
2067 118.1200 390.00 389.38 18.00
2068 118.1700 386.00 374.82 18.00
2069 118.2200 368.00 359.86 17.00
2070 118.2700 322.00 344.78 16.00
2071 118.3200 337.00 329.81 17.00
2072 118.3700 299.00 315.15 16.00
2073 118.4200 305.00 300.96 16.00
2074 118.4700 257.00 287.38 15.00
2075 118.5200 275.00 274.52 15.00
2076 118.5700 257.00 262.44 15.00
2077 118.6200 239.00 251.16 14.00
2078 118.6700 228.00 240.82 14.00
2079 118.7200 215.00 231.37 14.00
2080 118.7700 225.00 222.82 14.00
2081 118.8200 201.00 215.15 13.00
2082 118.8700 208.00 208.33 13.00
2083 118.9200 200.00 201.75 13.00
2084 118.9700 196.00 196.53 13.00
2085 119.0200 179.00 192.06 12.00
2086 119.0700 183.00 188.27 13.00
2087 119.1200 172.00 185.12 12.00
2088 119.1700 172.00 182.58 12.00
2089 119.2200 184.00 180.60 13.00
2090 119.2700 189.00 179.14 13.00
2091 119.3200 173.00 178.18 12.00
2092 119.3700 190.00 177.68 13.00
2093 119.4200 178.00 177.62 12.00
2094 119.4700 194.00 178.00 13.00
2095 119.5200 166.00 178.80 12.00
2096 119.5700 185.00 180.00 13.00
2097 119.6200 191.00 181.61 13.00
2098 119.6700 181.00 183.63 13.00
2099 119.7200 171.00 186.05 12.00
2100 119.7700 183.00 188.87 13.00
2101 119.8200 189.00 192.10 13.00
2102 119.8700 179.00 195.72 12.00
2103 119.9200 206.00 199.75 13.00
2104 119.9700 207.00 203.55 13.00
2105 120.0200 205.00 208.35 13.00
2106 120.0700 199.00 213.51 13.00
2107 120.1200 203.00 219.01 13.00
2108 120.1700 210.00 224.80 13.00
2109 120.2200 228.00 230.87 14.00
2110 120.2700 219.00 237.16 14.00
2111 120.3200 225.00 243.61 14.00
2112 120.3700 246.00 250.15 14.00
2113 120.4200 234.00 256.72 14.00
2114 120.4700 259.00 264.48 15.00
2115 120.5200 254.00 270.81 15.00
2116 120.5700 256.00 276.86 15.00
2117 120.6200 259.00 282.51 15.00
2118 120.6700 254.00 287.62 15.00
2119 120.7200 265.00 292.08 15.00
2120 120.7700 260.00 295.74 15.00
2121 120.8200 264.00 298.51 15.00
2122 120.8700 284.00 300.30 15.00
2123 120.9200 269.00 301.03 15.00
2124 120.9700 292.00 300.69 16.00
2125 121.0200 271.00 299.29 15.00
2126 121.0700 268.00 296.87 15.00
2127 121.1200 291.00 293.51 16.00
2128 121.1700 287.00 289.32 16.00
2129 121.2200 278.00 284.41 15.00
2130 121.2700 265.00 278.92 15.00
2131 121.3200 268.00 272.96 15.00
2132 121.3700 262.00 266.67 12.00
2133 121.4200 277.00 260.16 15.00
2134 121.4700 279.00 253.53 16.00
2135 121.5200 260.00 246.88 15.00
2136 121.5700 258.00 240.28 15.00
2137 121.6200 247.00 233.80 15.00
2138 121.6700 234.00 227.52 14.00
2139 121.7200 204.00 221.47 13.00
2140 121.7700 208.00 215.69 13.00
2141 121.8200 215.00 210.22 14.00
2142 121.8700 199.00 205.07 13.00
2143 121.9200 208.00 200.27 13.00
2144 121.9700 198.00 195.83 13.00
2145 122.0200 180.00 191.74 13.00
2146 122.0700 180.00 188.00 13.00
2147 122.1200 182.00 184.61 13.00
2148 122.1700 160.00 181.57 12.00
2149 122.2200 168.00 178.84 12.00
2150 122.2700 172.00 176.43 12.00
2151 122.3200 190.00 174.31 13.00
2152 122.3700 156.00 172.46 12.00
2153 122.4200 150.00 170.87 12.00
2154 122.4700 176.00 169.51 13.00
2155 122.5200 161.00 168.38 12.00
2156 122.5700 151.00 167.44 12.00
2157 122.6200 160.00 166.68 12.00
2158 122.6700 174.00 166.09 12.00
2159 122.7200 156.00 165.65 12.00
2160 122.7700 152.00 165.35 12.00
2161 122.8200 173.00 165.17 12.00
2162 122.8700 159.00 165.11 12.00
2163 122.9200 160.00 165.16 12.00
2164 122.9700 152.00 165.31 12.00
2165 123.0200 145.00 165.55 11.00
2166 123.0700 162.00 165.88 12.00
2167 123.1200 168.00 166.31 12.00
2168 123.1700 152.00 166.82 12.00
2169 123.2200 157.00 167.42 12.00
2170 123.2700 164.00 168.12 12.00
2171 123.3200 170.00 168.92 12.00
2172 123.3700 175.00 169.82 12.00
2173 123.4200 151.00 170.86 12.00
2174 123.4700 165.00 172.04 12.00
2175 123.5200 163.00 173.39 12.00
2176 123.5700 176.00 174.94 12.00
2177 123.6200 151.00 176.74 12.00
2178 123.6700 191.00 178.83 13.00
2179 123.7200 197.00 181.30 13.00
2180 123.7700 184.00 184.22 13.00
2181 123.8200 210.00 187.70 14.00
2182 123.8700 164.00 192.74 12.00
2183 123.9200 216.00 197.74 14.00
2184 123.9700 185.00 203.74 13.00
2185 124.0200 219.00 210.96 14.00
2186 124.0700 225.00 219.59 14.00
2187 124.1200 245.00 229.90 15.00
2188 124.1700 228.00 242.14 14.00
2189 124.2200 260.00 256.58 15.00
2190 124.2700 276.00 273.49 15.00
2191 124.3200 289.00 293.14 16.00
2192 124.3700 298.00 315.78 16.00
2193 124.4200 350.00 341.58 17.00
2194 124.4700 353.00 370.69 17.00
2195 124.5200 409.00 403.18 19.00
2196 124.5700 454.00 439.04 20.00
2197 124.6200 498.00 478.10 21.00
2198 124.6700 509.00 520.12 21.00
2199 124.7200 614.00 564.71 23.00
2200 124.7700 671.00 611.32 24.00
2201 124.8200 691.00 659.27 24.00
2202 124.8700 740.00 707.69 25.00
2203 124.9200 813.00 755.57 26.00
2204 124.9700 819.00 801.73 26.00
2205 125.0200 879.00 844.88 27.00
2206 125.0700 940.00 883.59 28.00
2207 125.1200 1000.00 915.77 29.00
2208 125.1700 998.00 941.32 29.00
2209 125.2200 1022.00 958.42 29.00
2210 125.2700 964.00 966.23 28.00
2211 125.3200 1019.00 964.41 29.00
2212 125.3700 1016.00 953.15 29.00
2213 125.4200 960.00 933.11 28.00
2214 125.4700 906.00 905.38 28.00
2215 125.5200 905.00 871.34 28.00
2216 125.5700 849.00 832.46 27.00
2217 125.6200 827.00 790.20 26.00
2218 125.6700 755.00 745.98 25.00
2219 125.7200 735.00 701.05 25.00
2220 125.7700 692.00 656.54 24.00
2221 125.8200 623.00 613.40 23.00
2222 125.8700 614.00 572.41 23.00
2223 125.9200 572.00 534.24 22.00
2224 125.9700 531.00 499.32 21.00
2225 126.0200 495.00 468.01 21.00
2226 126.0700 498.00 440.51 21.00
2227 126.1200 434.00 416.88 19.00
2228 126.1700 430.00 397.12 19.00
2229 126.2200 419.00 381.10 19.00
2230 126.2700 387.00 368.62 18.00
2231 126.3200 423.00 359.44 19.00
2232 126.3700 390.00 353.26 18.00
2233 126.4200 371.00 349.79 17.00
2234 126.4700 380.00 348.69 17.00
2235 126.5200 365.00 349.63 17.00
2236 126.5700 396.00 352.32 18.00
2237 126.6200 383.00 356.45 17.00
2238 126.6700 336.00 361.79 16.00
2239 126.7200 370.00 368.10 17.00
2240 126.7700 371.00 375.20 17.00
2241 126.8200 374.00 382.94 17.00
2242 126.8700 379.00 391.17 17.00
2243 126.9200 388.00 399.77 18.00
2244 126.9700 384.00 408.59 17.00
2245 127.0200 423.00 417.51 18.00
2246 127.0700 417.00 426.38 18.00
2247 127.1200 443.00 435.05 19.00
2248 127.1700 456.00 443.33 19.00
2249 127.2200 454.00 451.05 19.00
2250 127.2700 443.00 458.00 19.00
2251 127.3200 455.00 463.98 19.00
2252 127.3700 456.00 468.80 19.00
2253 127.4200 464.00 472.26 19.00
2254 127.4700 477.00 474.21 19.00
2255 127.5200 481.00 474.55 20.00
2256 127.5700 493.00 473.21 20.00
2257 127.6200 495.00 470.17 20.00
2258 127.6700 482.00 465.49 20.00
2259 127.7200 464.00 459.26 19.00
2260 127.7700 495.00 451.63 20.00
2261 127.8200 471.00 442.77 19.00
2262 127.8700 428.00 432.88 18.00
2263 127.9200 427.00 422.14 18.00
2264 127.9700 420.00 410.76 18.00
2265 128.0200 399.00 398.94 18.00
2266 128.0700 365.00 386.84 17.00
2267 128.1200 376.00 374.63 17.00
2268 128.1700 344.00 362.46 17.00
2269 128.2200 350.00 350.45 17.00
2270 128.2700 341.00 338.70 16.00
2271 128.3200 311.00 327.33 16.00
2272 128.3700 306.00 316.41 16.00
2273 128.4200 290.00 306.01 15.00
2274 128.4700 268.00 296.18 15.00
2275 128.5200 271.00 286.97 15.00
2276 128.5700 262.00 277.93 15.00
2277 128.6200 222.00 270.05 13.00
2278 128.6700 237.00 262.87 14.00
2279 128.7200 258.00 256.39 14.00
2280 128.7700 223.00 250.63 13.00
2281 128.8200 243.00 245.60 14.00
2282 128.8700 234.00 242.31 14.00
2283 128.9200 212.00 238.74 13.00
2284 128.9700 225.00 235.91 13.00
2285 129.0200 234.00 233.85 14.00
2286 129.0700 231.00 232.58 14.00
2287 129.1200 227.00 232.14 14.00
2288 129.1700 197.00 232.59 13.00
2289 129.2200 232.00 233.98 14.00
2290 129.2700 229.00 236.41 14.00
2291 129.3200 230.00 239.99 14.00
2292 129.3700 257.00 244.84 14.00
2293 129.4200 257.00 251.11 14.00
2294 129.4700 264.00 258.97 15.00
2295 129.5200 270.00 268.61 15.00
2296 129.5700 279.00 280.23 15.00
2297 129.6200 290.00 294.05 15.00
2298 129.6700 316.00 310.30 16.00
2299 129.7200 316.00 329.18 16.00
2300 129.7700 333.00 350.93 16.00
2301 129.8200 365.00 375.75 17.00
2302 129.8700 388.00 403.78 18.00
2303 129.9200 407.00 435.16 18.00
2304 129.9700 460.00 469.95 19.00
2305 130.0200 520.00 508.18 20.00
2306 130.0700 568.00 549.78 21.00
2307 130.1200 561.00 594.57 21.00
2308 130.1700 635.00 642.33 22.00
2309 130.2200 683.00 692.65 23.00
2310 130.2700 769.00 745.11 25.00
2311 130.3200 838.00 799.11 26.00
2312 130.3700 839.00 853.93 26.00
2313 130.4200 868.00 908.76 26.00
2314 130.4700 986.00 962.60 28.00
2315 130.5200 1033.00 1014.44 28.00
2316 130.5700 1069.00 1063.05 29.00
2317 130.6200 1097.00 1107.20 29.00
2318 130.6700 1160.00 1145.61 30.00
2319 130.7200 1153.00 1177.02 30.00
2320 130.7700 1170.00 1200.33 30.00
2321 130.8200 1211.00 1214.63 31.00
2322 130.8700 1249.00 1219.33 31.00
2323 130.9200 1225.00 1214.24 31.00
2324 130.9700 1248.00 1199.57 31.00
2325 131.0200 1203.00 1175.89 31.00
2326 131.0700 1096.00 1144.13 29.00
2327 131.1200 1165.00 1105.39 30.00
2328 131.1700 1066.00 1060.94 29.00
2329 131.2200 997.00 1012.06 28.00
2330 131.2700 971.00 959.97 28.00
2331 131.3200 910.00 905.87 27.00
2332 131.3700 807.00 850.81 36.00
2333 131.4200 802.00 795.77 25.00
2334 131.4700 776.00 741.59 24.00
2335 131.5200 667.00 689.65 23.00
2336 131.5700 659.00 639.09 23.00
2337 131.6200 611.00 591.10 22.00
2338 131.6700 554.00 546.06 21.00
2339 131.7200 525.00 504.20 20.00
2340 131.7700 504.00 465.67 20.00
2341 131.8200 461.00 430.53 19.00
2342 131.8700 390.00 398.77 18.00
2343 131.9200 383.00 370.32 17.00
2344 131.9700 389.00 345.02 18.00
2345 132.0200 358.00 322.72 17.00
2346 132.0700 322.00 303.19 16.00
2347 132.1200 319.00 286.21 16.00
2348 132.1700 310.00 271.55 16.00
2349 132.2200 271.00 258.98 15.00
2350 132.2700 287.00 248.25 15.00
2351 132.3200 269.00 239.13 15.00
2352 132.3700 254.00 231.42 14.00
2353 132.4200 239.00 224.93 14.00
2354 132.4700 234.00 219.49 14.00
2355 132.5200 233.00 214.94 14.00
2356 132.5700 230.00 211.14 14.00
2357 132.6200 230.00 207.97 14.00
2358 132.6700 214.00 205.35 13.00
2359 132.7200 227.00 203.17 14.00
2360 132.7700 224.00 201.38 13.00
2361 132.8200 228.00 199.91 14.00
2362 132.8700 208.00 198.71 13.00
2363 132.9200 201.00 197.75 13.00
2364 132.9700 205.00 196.99 13.00
2365 133.0200 197.00 196.41 13.00
2366 133.0700 201.00 195.98 13.00
2367 133.1200 215.00 195.69 13.00
2368 133.1700 216.00 195.28 13.00
2369 133.2200 208.00 195.22 13.00
2370 133.2700 208.00 195.26 13.00
2371 133.3200 203.00 195.38 13.00
2372 133.3700 181.00 195.58 12.00
2373 133.4200 186.00 195.85 12.00
2374 133.4700 184.00 196.18 12.00
2375 133.5200 188.00 196.56 12.00
2376 133.5700 197.00 196.97 13.00
2377 133.6200 197.00 197.41 13.00
2378 133.6700 193.00 197.87 13.00
2379 133.7200 199.00 198.34 13.00
2380 133.7700 197.00 198.79 13.00
2381 133.8200 187.00 199.24 12.00
2382 133.8700 193.00 199.64 13.00
2383 133.9200 201.00 200.01 13.00
2384 133.9700 212.00 200.32 13.00
2385 134.0200 209.00 200.57 13.00
2386 134.0700 205.00 200.74 13.00
2387 134.1200 190.00 200.84 13.00
2388 134.1700 200.00 200.85 13.00
2389 134.2200 185.00 200.77 12.00
2390 134.2700 182.00 200.61 12.00
2391 134.3200 196.00 200.37 13.00
2392 134.3700 199.00 200.05 13.00
2393 134.4200 210.00 198.74 13.00
2394 134.4700 213.00 198.31 13.00
2395 134.5200 209.00 197.84 13.00
2396 134.5700 195.00 197.34 13.00
2397 134.6200 193.00 196.81 13.00
2398 134.6700 208.00 196.28 13.00
2399 134.7200 205.00 195.74 13.00
2400 134.7700 199.00 195.21 13.00
2401 134.8200 196.00 194.70 13.00
2402 134.8700 196.00 194.22 13.00
2403 134.9200 196.00 193.77 13.00
2404 134.9700 212.00 193.37 13.00
2405 135.0200 195.00 193.01 13.00
2406 135.0700 201.00 192.71 13.00
2407 135.1200 195.00 192.47 13.00
2408 135.1700 187.00 192.30 12.00
2409 135.2200 184.00 192.20 12.00
2410 135.2700 179.00 192.18 12.00
2411 135.3200 181.00 192.25 12.00
2412 135.3700 194.00 192.40 13.00
2413 135.4200 175.00 192.66 12.00
2414 135.4700 178.00 193.01 12.00
2415 135.5200 172.00 193.48 12.00
2416 135.5700 164.00 194.07 12.00
2417 135.6200 185.00 194.80 12.00
2418 135.6700 191.00 195.66 13.00
2419 135.7200 206.00 196.68 13.00
2420 135.7700 177.00 197.88 12.00
2421 135.8200 195.00 199.26 13.00
2422 135.8700 172.00 200.85 12.00
2423 135.9200 186.00 202.67 12.00
2424 135.9700 189.00 204.75 12.00
2425 136.0200 198.00 207.10 13.00
2426 136.0700 220.00 209.73 13.00
2427 136.1200 199.00 212.75 13.00
2428 136.1700 176.00 216.15 12.00
2429 136.2200 199.00 219.96 13.00
2430 136.2700 201.00 224.24 13.00
2431 136.3200 209.00 229.03 13.00
2432 136.3700 206.00 234.37 11.00
2433 136.4200 226.00 240.30 13.00
2434 136.4700 225.00 246.88 13.00
2435 136.5200 241.00 254.16 14.00
2436 136.5700 263.00 262.19 14.00
2437 136.6200 264.00 271.00 15.00
2438 136.6700 251.00 280.65 14.00
2439 136.7200 248.00 291.18 14.00
2440 136.7700 289.00 302.62 15.00
2441 136.8200 295.00 315.00 15.00
2442 136.8700 325.00 328.35 16.00
2443 136.9200 331.00 342.69 16.00
2444 136.9700 347.00 358.00 17.00
2445 137.0200 352.00 374.30 17.00
2446 137.0700 368.00 391.57 17.00
2447 137.1200 409.00 409.77 18.00
2448 137.1700 446.00 428.86 19.00
2449 137.2200 454.00 448.77 19.00
2450 137.2700 511.00 469.43 20.00
2451 137.3200 513.00 490.76 20.00
2452 137.3700 515.00 512.62 20.00
2453 137.4200 564.00 534.91 21.00
2454 137.4700 597.00 557.43 21.00
2455 137.5200 592.00 580.04 21.00
2456 137.5700 625.00 602.55 22.00
2457 137.6200 686.00 624.71 23.00
2458 137.6700 688.00 646.31 23.00
2459 137.7200 710.00 667.07 23.00
2460 137.7700 751.00 686.72 24.00
2461 137.8200 785.00 704.97 24.00
2462 137.8700 801.00 721.52 25.00
2463 137.9200 845.00 736.08 25.00
2464 137.9700 785.00 748.36 24.00
2465 138.0200 773.00 758.12 24.00
2466 138.0700 799.00 765.14 25.00
2467 138.1200 826.00 769.27 25.00
2468 138.1700 788.00 770.41 25.00
2469 138.2200 803.00 768.54 25.00
2470 138.2700 792.00 763.71 25.00
2471 138.3200 774.00 756.03 24.00
2472 138.3700 753.00 745.69 24.00
2473 138.4200 726.00 732.91 24.00
2474 138.4700 752.00 717.96 24.00
2475 138.5200 728.00 701.11 24.00
2476 138.5700 677.00 682.68 23.00
2477 138.6200 678.00 662.94 23.00
2478 138.6700 649.00 642.21 22.00
2479 138.7200 604.00 620.73 22.00
2480 138.7700 581.00 598.78 21.00
2481 138.8200 554.00 576.57 21.00
2482 138.8700 549.00 554.32 21.00
2483 138.9200 508.00 532.22 20.00
2484 138.9700 470.00 510.44 19.00
2485 139.0200 456.00 489.12 19.00
2486 139.0700 467.00 468.39 19.00
2487 139.1200 421.00 448.35 18.00
2488 139.1700 409.00 429.10 18.00
2489 139.2200 403.00 410.70 18.00
2490 139.2700 370.00 393.21 17.00
2491 139.3200 377.00 376.66 17.00
2492 139.3700 364.00 361.10 17.00
2493 139.4200 346.00 346.51 16.00
2494 139.4700 303.00 332.93 15.00
2495 139.5200 292.00 320.32 15.00
2496 139.5700 319.00 308.67 16.00
2497 139.6200 291.00 297.97 15.00
2498 139.6700 290.00 288.16 15.00
2499 139.7200 295.00 279.22 15.00
2500 139.7700 287.00 271.11 15.00
2501 139.8200 254.00 263.76 14.00
2502 139.8700 247.00 257.15 14.00
2503 139.9200 252.00 251.22 14.00
2504 139.9700 245.00 245.92 14.00
2505 140.0200 231.00 241.21 14.00
2506 140.0700 236.00 237.03 14.00
2507 140.1200 227.00 233.34 14.00
2508 140.1700 228.00 230.09 14.00
2509 140.2200 232.00 227.26 14.00
2510 140.2700 223.00 224.79 13.00
2511 140.3200 214.00 222.65 13.00
2512 140.3700 217.00 220.34 13.00
2513 140.4200 212.00 218.78 13.00
2514 140.4700 208.00 217.46 13.00
2515 140.5200 220.00 216.35 13.00
2516 140.5700 212.00 215.45 13.00
2517 140.6200 211.00 214.73 13.00
2518 140.6700 209.00 214.18 13.00
2519 140.7200 201.00 213.79 13.00
2520 140.7700 217.00 213.54 13.00
2521 140.8200 224.00 213.43 13.00
2522 140.8700 215.00 213.46 13.00
2523 140.9200 218.00 213.62 13.00
2524 140.9700 201.00 213.92 13.00
2525 141.0200 202.00 214.35 13.00
2526 141.0700 197.00 214.93 13.00
2527 141.1200 216.00 215.66 13.00
2528 141.1700 196.00 216.55 13.00
2529 141.2200 212.00 217.62 13.00
2530 141.2700 213.00 218.89 13.00
2531 141.3200 208.00 219.14 13.00
2532 141.3700 218.00 220.86 13.00
2533 141.4200 216.00 222.85 13.00
2534 141.4700 226.00 225.14 14.00
2535 141.5200 218.00 227.75 13.00
2536 141.5700 215.00 230.73 13.00
2537 141.6200 252.00 234.12 14.00
2538 141.6700 227.00 237.97 14.00
2539 141.7200 242.00 242.33 14.00
2540 141.7700 222.00 247.24 14.00
2541 141.8200 243.00 252.78 14.00
2542 141.8700 219.00 259.00 13.00
2543 141.9200 279.00 265.96 15.00
2544 141.9700 295.00 273.73 15.00
2545 142.0200 301.00 282.38 16.00
2546 142.0700 280.00 291.98 15.00
2547 142.1200 290.00 302.59 15.00
2548 142.1700 309.00 314.29 16.00
2549 142.2200 347.00 327.14 17.00
2550 142.2700 344.00 341.19 17.00
2551 142.3200 335.00 356.52 16.00
2552 142.3700 361.00 373.16 17.00
2553 142.4200 404.00 391.16 18.00
2554 142.4700 420.00 410.53 18.00
2555 142.5200 423.00 431.32 18.00
2556 142.5700 470.00 453.51 19.00
2557 142.6200 485.00 477.09 20.00
2558 142.6700 506.00 502.06 20.00
2559 142.7200 523.00 528.33 20.00
2560 142.7700 551.00 555.89 21.00
2561 142.8200 613.00 584.61 22.00
2562 142.8700 645.00 614.40 22.00
2563 142.9200 645.00 645.13 22.00
2564 142.9700 693.00 676.64 23.00
2565 143.0200 716.00 708.78 24.00
2566 143.0700 693.00 741.32 23.00
2567 143.1200 759.00 774.05 24.00
2568 143.1700 798.00 806.71 25.00
2569 143.2200 858.00 839.03 26.00
2570 143.2700 876.00 870.73 26.00
2571 143.3200 869.00 901.47 26.00
2572 143.3700 948.00 930.93 27.00
2573 143.4200 971.00 958.74 27.00
2574 143.4700 996.00 984.54 28.00
2575 143.5200 1001.00 1007.97 28.00
2576 143.5700 1040.00 1028.67 28.00
2577 143.6200 1030.00 1046.30 28.00
2578 143.6700 1045.00 1060.55 28.00
2579 143.7200 1059.00 1071.16 29.00
2580 143.7700 1058.00 1077.93 29.00
2581 143.8200 1059.00 1080.72 29.00
2582 143.8700 1046.00 1079.48 28.00
2583 143.9200 1059.00 1074.24 29.00
2584 143.9700 1031.00 1065.10 28.00
2585 144.0200 1022.00 1052.24 28.00
2586 144.0700 1010.00 1035.90 28.00
2587 144.1200 978.00 1016.38 28.00
2588 144.1700 969.00 993.99 27.00
2589 144.2200 876.00 969.11 26.00
2590 144.2700 896.00 942.08 26.00
2591 144.3200 860.00 913.27 26.00
2592 144.3700 830.00 883.05 25.00
2593 144.4200 799.00 851.75 25.00
2594 144.4700 758.00 819.72 24.00
2595 144.5200 759.00 787.23 24.00
2596 144.5700 733.00 754.58 24.00
2597 144.6200 684.00 722.03 23.00
2598 144.6700 694.00 689.80 23.00
2599 144.7200 633.00 658.13 22.00
2600 144.7700 577.00 627.18 21.00
2601 144.8200 547.00 597.10 21.00
2602 144.8700 513.00 568.05 20.00
2603 144.9200 543.00 540.13 21.00
2604 144.9700 524.00 513.45 20.00
2605 145.0200 496.00 488.06 20.00
2606 145.0700 458.00 464.03 19.00
2607 145.1200 412.00 441.38 18.00
2608 145.1700 427.00 420.13 18.00
2609 145.2200 425.00 400.29 18.00
2610 145.2700 375.00 381.83 17.00
2611 145.3200 376.00 364.74 17.00
2612 145.3700 358.00 348.96 17.00
2613 145.4200 354.00 334.47 17.00
2614 145.4700 315.00 321.20 16.00
2615 145.5200 300.00 309.09 16.00
2616 145.5700 277.00 298.08 15.00
2617 145.6200 328.00 288.11 16.00
2618 145.6700 303.00 279.10 16.00
2619 145.7200 289.00 270.98 15.00
2620 145.7700 280.00 263.69 15.00
2621 145.8200 288.00 257.16 15.00
2622 145.8700 285.00 251.32 15.00
2623 145.9200 257.00 246.10 14.00
2624 145.9700 265.00 241.46 15.00
2625 146.0200 248.00 237.33 14.00
2626 146.0700 251.00 233.66 14.00
2627 146.1200 262.00 230.40 15.00
2628 146.1700 247.00 227.50 14.00
2629 146.2200 249.00 224.93 14.00
2630 146.2700 240.00 222.65 14.00
2631 146.3200 242.00 220.62 14.00
2632 146.3700 254.00 218.81 15.00
2633 146.4200 235.00 217.20 14.00
2634 146.4700 234.00 215.76 14.00
2635 146.5200 225.00 214.47 14.00
2636 146.5700 228.00 213.31 14.00
2637 146.6200 245.00 212.27 14.00
2638 146.6700 237.00 211.32 14.00
2639 146.7200 241.00 210.47 14.00
2640 146.7700 234.00 209.70 14.00
2641 146.8200 246.00 208.99 14.00
2642 146.8700 245.00 208.35 14.00
2643 146.9200 256.00 207.75 15.00
2644 146.9700 244.00 207.21 14.00
2645 147.0200 238.00 206.71 14.00
2646 147.0700 246.00 206.25 14.00
2647 147.1200 218.00 205.82 14.00
2648 147.1700 222.00 205.43 14.00
2649 147.2200 235.00 205.06 14.00
2650 147.2700 222.00 204.72 14.00
2651 147.3200 222.00 204.41 14.00
2652 147.3700 231.00 204.12 14.00
2653 147.4200 237.00 203.85 14.00
2654 147.4700 233.00 203.60 14.00
2655 147.5200 220.00 203.37 14.00
2656 147.5700 217.00 203.15 14.00
2657 147.6200 221.00 202.96 14.00
2658 147.6700 211.00 202.77 13.00
2659 147.7200 221.00 202.61 14.00
2660 147.7700 206.00 202.46 13.00
2661 147.8200 227.00 202.32 14.00
2662 147.8700 233.00 202.19 14.00
2663 147.9200 225.00 202.08 14.00
2664 147.9700 216.00 201.98 14.00
2665 148.0200 225.00 201.89 14.00
2666 148.0700 217.00 201.81 14.00
2667 148.1200 210.00 201.74 13.00
2668 148.1700 214.00 201.69 13.00
2669 148.2200 214.00 201.64 13.00
2670 148.2700 195.00 201.60 13.00
2671 148.3200 193.00 201.57 13.00
2672 148.3700 208.00 201.55 13.00
2673 148.4200 212.00 201.54 13.00
2674 148.4700 199.00 201.54 13.00
2675 148.5200 207.00 201.51 13.00
2676 148.5700 207.00 201.53 13.00
2677 148.6200 208.00 201.55 13.00
2678 148.6700 212.00 201.58 13.00
2679 148.7200 209.00 201.61 13.00
2680 148.7700 203.00 201.66 13.00
2681 148.8200 210.00 201.71 13.00
2682 148.8700 205.00 201.76 13.00
2683 148.9200 209.00 201.83 13.00
2684 148.9700 211.00 201.90 13.00
2685 149.0200 199.00 201.97 13.00
2686 149.0700 196.00 202.05 13.00
2687 149.1200 209.00 202.14 13.00
2688 149.1700 194.00 202.24 13.00
2689 149.2200 204.00 202.34 13.00
2690 149.2700 192.00 202.44 13.00
2691 149.3200 205.00 202.55 13.00
2692 149.3700 204.00 202.67 13.00
2693 149.4200 212.00 202.79 13.00
2694 149.4700 206.00 202.91 13.00
2695 149.5200 201.00 203.04 13.00
2696 149.5700 209.00 203.18 13.00
2697 149.6200 196.00 203.32 13.00
2698 149.6700 185.00 203.47 13.00
2699 149.7200 188.00 203.62 13.00
2700 149.7700 191.00 203.78 13.00
2701 149.8200 188.00 203.94 13.00
2702 149.8700 191.00 204.10 13.00
2703 149.9200 202.00 204.27 13.00
2704 149.9700 188.00 204.45 13.00
2705 150.0200 193.00 204.63 13.00
2706 150.0700 199.00 204.82 13.00
2707 150.1200 194.00 205.01 13.00
2708 150.1700 191.00 205.20 13.00
2709 150.2200 172.00 205.40 12.00
2710 150.2700 194.00 205.61 13.00
2711 150.3200 197.00 205.82 13.00
2712 150.3700 196.00 206.03 13.00
2713 150.4200 205.00 206.25 13.00
2714 150.4700 212.00 206.48 13.00
2715 150.5200 217.00 206.71 14.00
2716 150.5700 198.00 206.95 13.00
2717 150.6200 187.00 207.19 13.00
2718 150.6700 195.00 207.44 13.00
2719 150.7200 195.00 207.70 13.00
2720 150.7700 201.00 207.96 13.00
2721 150.8200 205.00 208.23 13.00
2722 150.8700 193.00 208.50 13.00
2723 150.9200 187.00 208.79 13.00
2724 150.9700 202.00 209.08 13.00
2725 151.0200 193.00 209.38 13.00
2726 151.0700 206.00 209.68 13.00
2727 151.1200 199.00 210.00 13.00
2728 151.1700 197.00 210.32 13.00
2729 151.2200 204.00 210.65 13.00
2730 151.2700 213.00 211.00 13.00
2731 151.3200 187.00 211.35 13.00
2732 151.3700 196.00 211.72 11.00
2733 151.4200 193.00 212.09 13.00
2734 151.4700 193.00 212.48 13.00
2735 151.5200 183.00 212.88 13.00
2736 151.5700 191.00 213.29 13.00
2737 151.6200 220.00 213.72 14.00
2738 151.6700 215.00 214.16 14.00
2739 151.7200 207.00 214.61 14.00
2740 151.7700 206.00 215.08 14.00
2741 151.8200 219.00 215.57 14.00
2742 151.8700 219.00 216.07 14.00
2743 151.9200 214.00 216.59 14.00
loop_
_pd_proc_info_excluded_regions
'from 2.997 to 14.730'
'from 151.87 to 166.450'
'from 397 to 10.000'
'from 397 to 166.616'
loop_
_refln_index_h
_refln_index_k
_refln_index_l
_refln_index_m_1
_refln_F_squared_calc
_refln_F_squared_meas
_refln_observed_status
_refln_d_spacing
0 0 1 -1 16.84 15.69 o 5.328218
0 0 1 1 18.20 15.75 o 2.815198
-1 0 1 0 98.18 97.70 o 2.664109
1 0 1 0 100.99 97.63 o 2.602731
0 1 0 1 102.76 101.38 o 2.503373
0 1 1 0 136.24 145.01 o 2.451007
0 0 2 0 128.39 134.28 o 2.389202
1 1 0 0 92.94 95.51 o 2.117023
1 0 0 1 238.34 229.28 o 2.043339
0 1 2 -1 109.13 113.45 o 2.025274
0 0 3 -1 12.73 13.40 o 1.842281
-1 0 2 -1 240.03 221.00 o 1.776073
-1 1 1 -1 2.42 1.03 < 1.673352
-1 1 2 0 85.77 82.64 o 1.598036
2 0 0 0 24.06 22.82 o 1.577507
1 1 2 0 92.53 84.58 o 1.571285
0 1 2 1 90.58 90.93 o 1.532656
1 1 1 1 1.77 1.59 o 1.482814
-1 0 3 0 94.49 95.11 o 1.436599
0 2 0 0 121.80 133.84 o 1.427613
1 0 3 0 102.73 95.43 o 1.407599
1 0 2 1 219.50 212.04 o 1.397039
0 1 3 0 134.28 128.59 o 1.390999
0 2 1 -1 11.74 11.29 o 1.378974
-2 1 1 0 27.34 25.64 o 1.334424
-2 0 2 0 20.88 20.00 o 1.332055
0 0 3 1 16.50 15.40 o 1.327448
2 1 1 0 31.56 29.15 o 1.318729
2 0 2 0 25.26 23.82 o 1.301365
-1 1 3 -1 3.67 3.42 o 1.280558
0 2 1 1 15.36 16.04 o 1.273255
-1 2 1 0 95.10 97.43 o 1.258332
-2 0 1 -1 19.70 20.34 o 1.255280
1 2 1 0 101.33 103.27 o 1.251686
0 2 2 0 118.18 124.52 o 1.225503
0 1 4 -1 102.34 99.39 o 1.214110
0 0 4 0 117.42 105.88 o 1.194601
1 2 0 1 211.59 223.47 o 1.170279
2 0 1 1 19.75 20.50 o 1.163240
-1 0 4 -1 224.70 226.75 o 1.158656
2 1 0 1 301.82 303.71 o 1.142804
0 2 3 -1 8.57 8.33 o 1.128453
-1 2 2 -1 220.01 223.91 o 1.112711
-2 1 2 -1 300.59 292.64 o 1.093383
