#------------------------------------------------------------------------------
#$Date: 2018-09-27 07:13:35 +0300 (Thu, 27 Sep 2018) $
#$Revision: 211196 $
#$URL: file:///home/coder/svn-repositories/cod/cif/4/00/23/4002365.cif $
#------------------------------------------------------------------------------
#
# This file is available in the Crystallography Open Database (COD),
# http://www.crystallography.net/
#
# All data on this site have been placed in the public domain by the
# contributors.
#
data_4002365
loop_
_publ_author_name
'Adkin, J.J.'
'Hayward, M.A.'
_publ_section_title
;
 Ba Mn O(3-x) revisited: a structural and magnetic study
;
_journal_name_full               'Chemistry of Materials (1,1989-)'
_journal_page_first              755
_journal_page_last               762
_journal_volume                  19
_journal_year                    2007
_chemical_formula_sum            'Ba Mn O2.91'
_space_group_IT_number           194
_symmetry_space_group_name_Hall  '-P 6c 2c'
_symmetry_space_group_name_H-M   'P 63/m m c'
_cell_angle_alpha                90
_cell_angle_beta                 90
_cell_angle_gamma                120
_cell_formula_units_Z            10
_cell_length_a                   5.6547
_cell_length_b                   5.6547
_cell_length_c                   23.1936
_cell_volume                     642.270
_citation_journal_id_ASTM        CMATEX
_cod_data_source_file            Adkin_CMATEX_2007_1377.cif
_cod_data_source_block           Ba1Mn1O2.91
_cod_original_cell_volume        642.2704
_cod_original_formula_sum        'Ba1 Mn1 O2.91'
_cod_database_code               4002365
loop_
_symmetry_equiv_pos_as_xyz
x,y,z
x-y,x,z+1/2
-y,x-y,z
-x,-y,z+1/2
-x+y,-x,z
y,-x+y,z+1/2
-y,-x,-z+1/2
x-y,-y,-z
x,x-y,-z+1/2
y,x,-z
-x+y,y,-z+1/2
-x,-x+y,-z
-x,-y,-z
-x+y,-x,-z-1/2
y,-x+y,-z
x,y,-z-1/2
x-y,x,-z
-y,x-y,-z-1/2
y,x,z-1/2
-x+y,y,z
-x,-x+y,z-1/2
-y,-x,z
x-y,-y,z-1/2
x,x-y,z
loop_
_atom_site_label
_atom_site_type_symbol
_atom_site_fract_x
_atom_site_fract_y
_atom_site_fract_z
_atom_site_occupancy
_atom_site_U_iso_or_equiv
Mn1 Mn+3 0 0 0 1 0.0
O2 O-2 0.14828 0.29655 0.05254 0.984 0.0
Mn2 Mn+3 0 0 0.10714 1 0.0
Ba1 Ba+2 0 0 0.25 1 0.0
Mn3 Mn+3 0.3333 0.6667 0.69509 1 0.0
Ba3 Ba+2 0.3333 0.6667 0.54722 1 0.0
O3 O-2 0.83309 0.6662 0.15054 0.979 0.0
Ba2 Ba+2 0.3333 0.6667 0.14939 1 0.0
O1 O-2 0.52108 0.0422 0.25 0.933 0.0
