#------------------------------------------------------------------------------
#$Date: 2016-02-13 21:28:24 +0200 (Sat, 13 Feb 2016) $
#$Revision: 176429 $
#$URL: svn://www.crystallography.net/cod/cif/4/00/24/4002498.cif $
#------------------------------------------------------------------------------
#
# This file is available in the Crystallography Open Database (COD),
# http://www.crystallography.net/
#
# All data on this site have been placed in the public domain by the
# contributors.
#
data_4002498
loop_
_publ_author_name
'Hashimoto, Y.'
'Matsuhira, K.'
'Wakeshima, M.'
'Hinatsu, Y.'
_publ_section_title
;
 Structures and magnetic properties of ternary lithium oxides Li R O2 ( R
 = rare earths)
;
_journal_name_full               'Chemistry of Materials (1,1989-)'
_journal_page_first              3245
_journal_page_last               3251
_journal_volume                  14
_journal_year                    2002
_chemical_formula_sum            'Er Li O2'
_chemical_name_systematic        'Li Er O2'
_space_group_IT_number           141
_symmetry_space_group_name_Hall  'I 4bw 2bw -1bw'
_symmetry_space_group_name_H-M   'I 41/a m d :1'
_cell_angle_alpha                90
_cell_angle_beta                 90
_cell_angle_gamma                90
_cell_formula_units_Z            4
_cell_length_a                   4.4291
_cell_length_b                   4.4291
_cell_length_c                   10.221
_cell_volume                     200.505
_citation_journal_id_ASTM        CMATEX
_cod_data_source_file            Hashimoto_CMATEX_2002_679.cif
_cod_data_source_block           Er1Li1O2
_cod_original_cell_volume        200.5046
_cod_original_sg_symbol_Hall     '-I 4bd 2 (x+1/2,y+1/4,z+1/8)'
_cod_original_formula_sum        'Er1 Li1 O2'
_cod_database_code               4002498
loop_
_symmetry_equiv_pos_as_xyz
x,y,z
-y,x+1/2,z+1/4
-x+1/2,-y+1/2,z+1/2
y+1/2,-x,z+3/4
x,-y+1/2,-z+1/4
y+1/2,x+1/2,-z+1/2
-x+1/2,y,-z+3/4
-y,-x,-z
-x,-y+1/2,-z+1/4
y,-x,-z
x-1/2,y,-z-1/4
-y-1/2,x+1/2,-z-1/2
-x,y,z
-y-1/2,-x,z-1/4
x-1/2,-y+1/2,z-1/2
y,x+1/2,z+1/4
x+1/2,y+1/2,z+1/2
-y+1/2,x+1,z+3/4
-x+1,-y+1,z+1
y+1,-x+1/2,z+5/4
x+1/2,-y+1,-z+3/4
y+1,x+1,-z+1
-x+1,y+1/2,-z+5/4
-y+1/2,-x+1/2,-z+1/2
-x+1/2,-y+1,-z+3/4
y+1/2,-x+1/2,-z+1/2
x,y+1/2,-z+1/4
-y,x+1,-z
-x+1/2,y+1/2,z+1/2
-y,-x+1/2,z+1/4
x,-y+1,z
y+1/2,x+1,z+3/4
loop_
_atom_site_label
_atom_site_type_symbol
_atom_site_fract_x
_atom_site_fract_y
_atom_site_fract_z
_atom_site_occupancy
_atom_site_U_iso_or_equiv
Li1 Li+1 0 0 0.5 1 0.0
Er1 Er+3 0 0 0 1 0.0
O1 O-2 0 0 0.2234 1 0.0
