#------------------------------------------------------------------------------
#$Date: 2015-09-17 22:38:08 +0300 (Thu, 17 Sep 2015) $
#$Revision: 156743 $
#$URL: svn://www.crystallography.net/cod/cif/4/00/24/4002483.cif $
#------------------------------------------------------------------------------
#
# This file is available in the Crystallography Open Database (COD),
# http://www.crystallography.net/
#
# All data on this site have been placed in the public domain by the
# contributors.
#
data_4002483
loop_
_publ_author_name
'El-Fadli, Z.'
'Metni, M.R.'
'Sapina, F.'
'Beltran, A.'
'Martinez, E.'
'Folgado, J.V.'
_publ_section_title
;
 Electronic properties of mixed-valence manganates: the role of Mn
 substitutional defects
;
_journal_name_full               'Chemistry of Materials (1,1989-)'
_journal_page_first              688
_journal_page_last               696
_journal_volume                  14
_journal_year                    2002
_chemical_formula_sum            'La0.726 Mn0.98 O3 Sr0.274 Zn0.02'
_chemical_name_systematic        '(La0.726 Sr0.274) (Mn0.98 Zn0.02) O3'
_space_group_IT_number           167
_symmetry_space_group_name_Hall  '-R 3 2"c'
_symmetry_space_group_name_H-M   'R -3 c :H'
_cell_angle_alpha                90
_cell_angle_beta                 90
_cell_angle_gamma                120
_cell_formula_units_Z            6
_cell_length_a                   5.51373
_cell_length_b                   5.51373
_cell_length_c                   13.3667
_cell_volume                     351.922
_citation_journal_id_ASTM        CMATEX
_cod_data_source_file            El-Fadli_CMATEX_2002_258.cif
_cod_data_source_block           La0.726Mn0.98O3Sr0.274Zn0.02
_cod_original_cell_volume        351.9215
_cod_database_code               4002483
loop_
_symmetry_equiv_pos_as_xyz
x,y,z
-y,x-y,z
-x+y,-x,z
y,x,-z+1/2
-x,-x+y,-z+1/2
x-y,-y,-z+1/2
-x,-y,-z
y,-x+y,-z
x-y,x,-z
-y,-x,z-1/2
x,x-y,z-1/2
-x+y,y,z-1/2
x+2/3,y+1/3,z+1/3
-y+2/3,x-y+1/3,z+1/3
-x+y+2/3,-x+1/3,z+1/3
y+2/3,x+1/3,-z+5/6
-x+2/3,-x+y+1/3,-z+5/6
x-y+2/3,-y+1/3,-z+5/6
-x+2/3,-y+1/3,-z+1/3
y+2/3,-x+y+1/3,-z+1/3
x-y+2/3,x+1/3,-z+1/3
-y+2/3,-x+1/3,z-1/6
x+2/3,x-y+1/3,z-1/6
-x+y+2/3,y+1/3,z-1/6
x+1/3,y+2/3,z+2/3
-y+1/3,x-y+2/3,z+2/3
-x+y+1/3,-x+2/3,z+2/3
y+1/3,x+2/3,-z+7/6
-x+1/3,-x+y+2/3,-z+7/6
x-y+1/3,-y+2/3,-z+7/6
-x+1/3,-y+2/3,-z+2/3
y+1/3,-x+y+2/3,-z+2/3
x-y+1/3,x+2/3,-z+2/3
-y+1/3,-x+2/3,z+1/6
x+1/3,x-y+2/3,z+1/6
-x+y+1/3,y+2/3,z+1/6
loop_
_atom_site_label
_atom_site_type_symbol
_atom_site_fract_x
_atom_site_fract_y
_atom_site_fract_z
_atom_site_occupancy
_atom_site_U_iso_or_equiv
O1 O-2 0.4571 0 0.25 1 0.0
Mn2 Mn+4 0 0 0 0.294 0.0
La1 La+3 0 0 0.25 0.726 0.0
Mn1 Mn+3 0 0 0 0.686 0.0
Sr1 Sr+2 0 0 0.25 0.274 0.0
Zn1 Zn+2 0 0 0 0.02 0.0
