#------------------------------------------------------------------------------
#$Date: 2016-03-04 11:08:28 +0200 (Fri, 04 Mar 2016) $
#$Revision: 177394 $
#$URL: svn://www.crystallography.net/cod/cif/4/00/26/4002659.cif $
#------------------------------------------------------------------------------
#
# This file is available in the Crystallography Open Database (COD),
# http://www.crystallography.net/
#
# All data on this site have been placed in the public domain by the
# contributors.
#
data_4002659
loop_
_publ_author_name
'Wiedemann, Dennis'
'Nakhal, Suliman'
'Rahn, Johanna'
'Witt, Elena'
'Islam, Mazharul M.'
'Zander, Stefan'
'Heitjans, Paul'
'Schmidt, Harald'
'Bredow, Thomas'
'Wilkening, Martin'
'Lerch, Martin'
_publ_section_title
;
 Unravelling Ultraslow Lithium-Ion Diffusion in \g-LiAlO2: Experiments
 with Tracers, Neutrons, and Charge Carriers
;
_journal_issue                   3
_journal_name_full               'Chemistry of Materials'
_journal_page_first              915
_journal_paper_doi               10.1021/acs.chemmater.5b04608
_journal_volume                  28
_journal_year                    2016
_chemical_absolute_configuration unk
_chemical_formula_sum            'Al Li O2'
_chemical_formula_weight         65.9
_chemical_name_common            '\g-lithium aluminate'
_chemical_name_structure_type    \g-LiAlO~2~
_chemical_name_systematic        '\g-lithium aluminium dioxide'
_space_group_IT_number           92
_symmetry_cell_setting           tetragonal
_symmetry_Int_Tables_number      92
_symmetry_space_group_name_Hall  'P 4abw 2nw'
_symmetry_space_group_name_H-M   'P 41 21 2'
_atom_sites_solution_hydrogens   notdet
_atom_sites_solution_primary     other
_atom_sites_solution_secondary   notdet
_cell_angle_alpha                90
_cell_angle_beta                 90
_cell_angle_gamma                90
_cell_formula_units_Z            4
_cell_length_a                   5.15885(17)
_cell_length_b                   5.15885(17)
_cell_length_c                   6.2700(3)
_cell_measurement_temperature    345
_cell_volume                     166.868(11)
_computing_cell_refinement       'JANA2006 (Pet\<r\'i\<cek, 2014)'
_computing_data_collection       'CARESS 6.6 (Busse et al., 2013)'
_computing_data_reduction        'BEAN 9.2 (Fromme et al., 2000)'
_computing_molecular_graphics    'Diamond 3.2 (Brandenburg, 2013)'
_computing_publication_material  'JANA2006 (Pet\<r\'i\<cek, 2014)'
_computing_structure_refinement  'JANA2006 (Pet\<r\'i\<cek, 2014)'
_computing_structure_solution    'ICSD (Bergerhoff, 1987)'
_diffrn_ambient_environment      vacuum
_diffrn_ambient_temperature      345
_diffrn_detector                 '^3^He counter'
_diffrn_detector_details
; array of eight DENEX area detectors (active area: 300 \\times 300 mm^2^) with
oscillating radial collimator for background reduction
;
_diffrn_measurement_device       'one-circle powder diffractometer'
_diffrn_measurement_device_details
; D. M. T\"obbens, N. St\"u\&ser, K. Knorr, H. M. Mayer, G. Lampert,
Mater. Sci. Forum 2001, 378-381, 288-293
;
_diffrn_measurement_device_type  FIREPOD
_diffrn_measurement_method       'profile data from area detector'
_diffrn_radiation_monochromator  'Sapphire filter, Ge (511)'
_diffrn_radiation_probe          neutron
_diffrn_radiation_type           neutron
_diffrn_radiation_wavelength     1.7982(1)
_diffrn_source                   'nuclear reactor'
_diffrn_source_type              'BER II beamline T5'
_exptl_absorpt_coefficient_mu    0.172
_exptl_absorpt_correction_type   cylinder
_exptl_absorpt_process_details
; correction for a cylindrical sample with \mR = 0.500 as
implemented in JANA2006
;
_exptl_crystal_density_diffrn    2.624
_exptl_crystal_density_method    'not measured'
_exptl_crystal_F_000             52.62
_pd_char_atten_coef_mu_calc      0.103
_pd_char_colour                  colourless
_pd_instr_2theta_monochr_pre     111.7
_pd_instr_beam_size_ax           90
_pd_instr_dist_mono/spec         2500
_pd_instr_dist_spec/detc         980
_pd_instr_dist_src/mono          11000
_pd_instr_geometry               Debye-Scherrer
_pd_instr_location
; Fine Resolution Powder Diffractometer (FIREPOD, E9), Helmholtz-Zentrum,
Berlin (Germany)
;
_pd_instr_monochr_pre_spec       'Sapphire filter, Ge (511)'
_pd_instr_soller_eq_mono/spec    0.66667
_pd_instr_soller_eq_spec/detc    0.16667
_pd_instr_soller_eq_src/mono     0.30000
_pd_meas_2theta_range_inc        0.075
_pd_meas_2theta_range_max        141.755
_pd_meas_2theta_range_min        0.005
_pd_meas_number_of_points        1891
_pd_meas_scan_method             step
_pd_proc_2theta_range_inc        0.075
_pd_proc_2theta_range_max        139.43
_pd_proc_2theta_range_min        15.005
_pd_proc_info_data_reduction
; integration of measured 2D intensities along Debye--Scherrer rings to give
1D data
;
_pd_proc_ls_background_function
; manual background (visual estimation, unrefined) interpolated by ten
Legendre polynomials
;
_pd_proc_ls_pref_orient_corr     none
_pd_proc_ls_profile_function
; pseudo-Voigt profile with Thompson-Cox-Hastings approach:
G~U~ = 748(8), G~V~ = -1089.9, G~W~ = 709(8), L~X~ = 5.5(5), L~Y~ = 0,
B\'erar-Baldinozzi asymmetry correction:
A~0~ = 0.363(7), A~1~ = -0.8245
;
_pd_proc_ls_prof_R_factor        0.0311
_pd_proc_ls_prof_wR_expected     0.0285
_pd_proc_ls_prof_wR_factor       0.0396
_pd_spec_mounting                'compacted powder in tantalum can'
_pd_spec_mount_mode              transmission
_pd_spec_orientation             vertical
_pd_spec_shape                   cylinder
_pd_spec_size_axial              55
_pd_spec_size_equat              9.7
_refine_diff_density_max         0.11
_refine_diff_density_min         -0.11
_refine_ls_extinction_method     none
_refine_ls_goodness_of_fit_all   1.39
_refine_ls_matrix_type           fullcycle
_refine_ls_number_constraints    1
_refine_ls_number_parameters     36
_refine_ls_number_restraints     0
_refine_ls_R_factor_all          0.0210
_refine_ls_R_factor_gt           0.0177
_refine_ls_R_I_factor            0.0280
_refine_ls_shift/su_max          0.0016
_refine_ls_shift/su_mean         0.0003
_refine_ls_structure_factor_coef Inet
_refine_ls_weighting_details     w=1/[\s^2^(F~o~)+(0.01F~o~)^2^]
_refine_ls_weighting_scheme      sigma
_refine_ls_wR_factor_all         0.0196
_refine_ls_wR_factor_gt          0.0193
_reflns_threshold_expression     I>3\s(I)
_cod_data_source_file            cm5b04608_si_002.cif
_cod_data_source_block           lialo2-pow-72C
_cod_depositor_comments
'Adding full bibliography for 4002658--4002660.cif.'
_cod_original_cell_volume        166.868(14)
_cod_original_formula_sum        'Al1 Li1 O2'
_cod_database_code               4002659
loop_
_space_group_symop_id
_space_group_symop_operation_xyz
1 x,y,z
2 -x,-y,z+1/2
3 -y+1/2,x+1/2,z+1/4
4 y+1/2,-x+1/2,z+3/4
5 -x+1/2,y+1/2,-z+1/4
6 x+1/2,-y+1/2,-z+3/4
7 y,x,-z
8 -y,-x,-z+1/2
loop_
_atom_site_label
_atom_site_type_symbol
_atom_site_fract_x
_atom_site_fract_y
_atom_site_fract_z
_atom_site_adp_type
_atom_site_U_iso_or_equiv
_atom_site_site_symmetry_multiplicity
_atom_site_occupancy
_atom_site_calc_flag
_atom_site_refinement_flags
_atom_site_constraints
Li1 Li 0.8136(10) 0.8136(10) 0 Uani 0.0212(15) 4 1 d . .
Al1 Al 0.1739(4) 0.1739(4) 0 Uani 0.0106(8) 4 1 d T U~13~=0
O1 O 0.3369(3) 0.2903(3) 0.7726(3) Uani 0.0132(5) 8 1 d . .
loop_
_atom_site_aniso_label
_atom_site_aniso_type_symbol
_atom_site_aniso_U_11
_atom_site_aniso_U_22
_atom_site_aniso_U_33
_atom_site_aniso_U_12
_atom_site_aniso_U_13
_atom_site_aniso_U_23
Li1 Li 0.0224(19) 0.0224(19) 0.019(4) -0.003(3) 0.007(3) -0.007(3)
Al1 Al 0.0125(10) 0.0125(10) 0.0068(18) -0.0057(16) 0 0
O1 O 0.0129(8) 0.0163(8) 0.0105(8) -0.0004(7) 0.0013(7) 0.0014(9)
loop_
_atom_type_symbol
_atom_type_scat_length_neutron
_atom_type_scat_source
Al 3.449 International_Tables_Vol_C
Li -1.900 International_Tables_Vol_C
O 5.803 International_Tables_Vol_C
loop_
_geom_angle_atom_site_label_1
_geom_angle_atom_site_label_2
_geom_angle_atom_site_label_3
_geom_angle_site_symmetry_1
_geom_angle_site_symmetry_3
_geom_angle
O1 Li1 O1 2_664 3_654 110.60(15)
O1 Li1 O1 2_664 6_565 110.92(18)
O1 Li1 O1 2_664 8_665 123.2(3)
O1 Li1 O1 3_654 6_565 83.57(19)
O1 Li1 O1 3_654 8_665 110.92(18)
O1 Li1 O1 6_565 8_665 110.60(15)
O1 Al1 O1 1_554 3_544 110.67(11)
O1 Al1 O1 1_554 6_455 111.84(10)
O1 Al1 O1 1_554 7_556 109.26(13)
O1 Al1 O1 3_544 6_455 102.45(13)
O1 Al1 O1 3_544 7_556 111.84(10)
O1 Al1 O1 6_455 7_556 110.67(11)
loop_
_geom_bond_atom_site_label_1
_geom_bond_atom_site_label_2
_geom_bond_site_symmetry_2
_geom_bond_distance
Li1 O1 2_664 1.952(3)
Li1 O1 3_654 2.052(5)
Li1 O1 6_565 2.052(5)
Li1 O1 8_665 1.952(3)
Al1 O1 1_554 1.761(2)
Al1 O1 3_544 1.754(2)
Al1 O1 6_455 1.754(2)
Al1 O1 7_556 1.761(2)
loop_
_pd_proc_point_id
_pd_proc_2theta_corrected
_pd_proc_intensity_net
_pd_calc_intensity_net
_pd_proc_ls_weight
1 15.1858 582.38 552.89 24.13
2 15.2608 578.03 554.13 24.04
3 15.3358 547.53 555.36 23.40
4 15.4108 581.77 556.58 24.12
5 15.4858 581.66 557.79 24.12
6 15.5608 549.38 558.98 23.44
7 15.6358 549.99 560.16 23.45
8 15.7108 573.71 561.33 23.95
9 15.7858 557.28 562.49 23.61
10 15.8608 592.40 563.63 24.34
11 15.9358 575.68 564.77 23.99
12 16.0108 566.05 565.89 23.79
13 16.0858 561.34 566.99 23.69
14 16.1608 537.31 568.09 23.18
15 16.2358 565.63 569.18 23.78
16 16.3108 566.13 570.26 23.79
17 16.3858 569.73 571.32 23.87
18 16.4608 601.77 572.38 24.53
19 16.5358 613.57 573.42 24.77
20 16.6108 560.97 574.45 23.68
21 16.6858 574.79 575.48 23.97
22 16.7608 589.92 576.49 24.29
23 16.8358 555.70 577.49 23.57
24 16.9108 531.99 578.49 23.06
25 16.9858 530.91 579.47 23.04
26 17.0608 581.24 580.45 24.11
27 17.1358 566.55 581.41 23.80
28 17.2108 575.53 582.37 23.99
29 17.2858 569.14 583.32 23.86
30 17.3608 597.91 584.26 24.45
31 17.4358 562.07 585.19 23.71
32 17.5108 536.10 586.11 23.15
33 17.5858 533.24 587.03 23.09
34 17.6608 619.63 587.96 24.89
35 17.7358 608.25 588.85 24.66
36 17.8108 601.21 589.75 24.52
37 17.8858 602.22 590.63 24.54
38 17.9608 584.76 591.51 24.18
39 18.0358 577.11 592.38 24.02
40 18.1108 569.05 593.24 23.85
41 18.1858 563.85 594.09 23.75
42 18.2608 607.39 594.94 24.65
43 18.3358 592.34 595.78 24.34
44 18.4108 570.34 596.61 23.88
45 18.4858 566.87 597.44 23.81
46 18.5608 600.25 598.27 24.50
47 18.6358 604.44 599.08 24.59
48 18.7108 610.81 599.89 24.71
49 18.7858 640.34 600.69 25.30
50 18.8608 586.97 601.49 24.23
51 18.9358 641.14 602.28 25.32
52 19.0108 627.28 603.07 25.05
53 19.0858 589.21 603.85 24.27
54 19.1608 591.70 604.63 24.32
55 19.2358 607.68 605.40 24.65
56 19.3108 597.25 606.17 24.44
57 19.3858 591.05 606.93 24.31
58 19.4608 574.84 607.69 23.98
59 19.5358 568.30 608.44 23.84
60 19.6108 606.76 609.19 24.63
61 19.6858 632.21 609.93 25.14
62 19.7608 613.30 610.68 24.76
63 19.8358 591.17 611.41 24.31
64 19.9108 642.91 612.15 25.36
65 19.9858 609.97 612.88 24.70
66 20.0608 618.68 613.60 24.87
67 20.1358 635.56 614.33 25.21
68 20.2108 623.36 615.04 24.97
69 20.2858 609.20 615.76 24.68
70 20.3608 622.19 616.48 24.94
71 20.4358 560.02 617.19 23.66
72 20.5108 596.99 617.90 24.43
73 20.5858 594.22 618.60 24.38
74 20.6608 608.56 619.31 24.67
75 20.7358 652.51 620.01 25.54
76 20.8108 588.22 620.71 24.25
77 20.8858 644.53 621.41 25.39
78 20.9608 646.71 622.11 25.43
79 21.0358 609.21 622.81 24.68
80 21.1108 610.53 623.51 24.71
81 21.1858 662.41 624.20 25.74
82 21.2608 606.49 624.90 24.63
83 21.3358 635.22 625.59 25.20
84 21.4108 660.79 626.28 25.71
85 21.4858 645.75 626.98 25.41
86 21.5608 671.07 627.67 25.90
87 21.6358 638.20 628.37 25.26
88 21.7108 680.53 629.07 26.09
89 21.7858 670.09 629.77 25.89
90 21.8608 677.78 630.47 26.03
91 21.9358 708.81 631.17 26.62
92 22.0108 727.08 631.88 26.96
93 22.0858 696.77 632.59 26.40
94 22.1608 717.08 633.30 26.78
95 22.2358 649.92 634.01 25.49
96 22.3108 666.25 634.73 25.81
97 22.3858 658.12 635.46 25.65
98 22.4608 675.53 636.19 25.99
99 22.5358 627.20 637.02 25.04
100 22.6108 648.84 637.77 25.47
101 22.6858 652.75 638.52 25.55
102 22.7608 670.74 639.29 25.90
103 22.8358 668.03 640.06 25.85
104 22.9108 649.90 640.84 25.49
105 22.9858 654.43 641.64 25.58
106 23.0608 634.56 642.45 25.19
107 23.1358 619.35 643.27 24.89
108 23.2108 637.93 644.11 25.26
109 23.2858 629.81 644.97 25.10
110 23.3608 635.43 645.85 25.21
111 23.4358 637.35 646.76 25.25
112 23.5108 618.32 647.69 24.87
113 23.5858 621.16 648.17 24.92
114 23.6608 599.43 648.35 24.48
115 23.7358 637.72 648.58 25.25
116 23.8108 657.93 648.85 25.65
117 23.8858 617.04 649.16 24.84
118 23.9608 643.66 649.54 25.37
119 24.0358 604.57 649.97 24.59
120 24.1108 620.86 650.48 24.92
121 24.1858 598.43 651.08 24.46
122 24.2608 594.54 651.77 24.38
123 24.3358 687.44 652.59 26.22
124 24.4108 670.65 653.53 25.90
125 24.4858 634.39 654.64 25.19
126 24.5608 624.64 655.94 24.99
127 24.6358 661.76 657.46 25.72
128 24.7108 650.93 659.26 25.51
129 24.7858 639.82 661.38 25.29
130 24.8608 643.32 663.91 25.36
131 24.9358 643.00 666.93 25.36
132 25.0108 633.63 670.64 25.17
133 25.0858 660.71 675.41 25.70
134 25.1608 714.36 682.24 26.73
135 25.2358 749.88 693.66 27.38
136 25.3108 765.84 715.77 27.67
137 25.3858 837.25 761.58 28.94
138 25.4608 1016.58 855.41 31.88
139 25.5358 1160.65 1036.14 34.07
140 25.6108 1431.33 1355.43 37.83
141 25.6858 1941.73 1866.60 44.07
142 25.7608 2607.94 2601.76 51.07
143 25.8358 3506.18 3541.27 59.21
144 25.9108 4509.44 4585.34 67.15
145 25.9858 5245.09 5544.59 72.42
146 26.0608 5910.21 6171.72 76.88
147 26.1358 5980.57 6259.78 77.33
148 26.2108 5612.46 5769.75 74.92
149 26.2858 4830.91 4854.90 69.50
150 26.3608 3700.66 3766.04 60.83
151 26.4358 2714.87 2740.00 52.10
152 26.5108 1908.01 1926.09 43.68
153 26.5858 1400.87 1367.26 37.43
154 26.6608 1047.12 1029.07 32.36
155 26.7358 884.89 845.44 29.75
156 26.8108 802.58 753.82 28.33
157 26.8858 751.36 710.13 27.41
158 26.9608 716.61 688.88 26.77
159 27.0358 725.80 677.46 26.94
160 27.1108 692.34 670.30 26.31
161 27.1858 677.99 665.17 26.04
162 27.2608 651.45 661.18 25.52
163 27.3358 681.63 657.95 26.11
164 27.4108 633.12 655.29 25.16
165 27.4858 654.54 653.10 25.58
166 27.5608 641.17 651.33 25.32
167 27.6358 663.87 649.98 25.77
168 27.7108 631.83 649.22 25.14
169 27.7858 635.61 649.49 25.21
170 27.8608 680.53 651.80 26.09
171 27.9358 658.90 658.03 25.67
172 28.0108 679.90 671.16 26.07
173 28.0858 664.47 694.98 25.78
174 28.1608 717.71 733.03 26.79
175 28.2358 781.66 786.67 27.96
176 28.3108 801.47 852.75 28.31
177 28.3858 841.29 921.98 29.00
178 28.4608 910.17 979.32 30.17
179 28.5358 977.96 1007.83 31.27
180 28.6108 998.95 997.12 31.61
181 28.6858 979.32 950.32 31.29
182 28.7608 897.34 881.78 29.96
183 28.8358 818.03 808.97 28.60
184 28.9108 763.32 745.69 27.63
185 28.9858 705.12 698.77 26.55
186 29.0608 678.44 668.59 26.05
187 29.1358 638.29 651.08 25.26
188 29.2108 593.51 641.88 24.36
189 29.2858 626.68 637.29 25.03
190 29.3608 649.99 634.97 25.49
191 29.4358 655.07 633.67 25.59
192 29.5108 641.20 632.81 25.32
193 29.5858 598.11 632.15 24.46
194 29.6608 606.14 631.61 24.62
195 29.7358 642.10 631.14 25.34
196 29.8108 650.64 630.72 25.51
197 29.8858 617.36 630.34 24.85
198 29.9608 597.63 630.00 24.45
199 30.0358 629.51 629.69 25.09
200 30.1108 621.32 629.41 24.93
201 30.1858 637.27 629.16 25.24
202 30.2608 612.03 628.93 24.74
203 30.3358 592.59 628.72 24.34
204 30.4108 606.23 628.53 24.62
205 30.4858 618.75 628.35 24.87
206 30.5608 655.21 628.20 25.60
207 30.6358 641.43 628.07 25.33
208 30.7108 629.58 628.21 25.09
209 30.7858 627.40 628.12 25.05
210 30.8608 603.74 628.04 24.57
211 30.9358 635.03 627.99 25.20
212 31.0108 609.14 627.97 24.68
213 31.0858 633.70 628.78 25.17
214 31.1608 642.03 629.83 25.34
215 31.2358 625.45 630.92 25.01
216 31.3108 661.59 632.04 25.72
217 31.3858 650.85 633.20 25.51
218 31.4608 650.70 634.40 25.51
219 31.5358 593.92 635.65 24.37
220 31.6108 672.24 636.95 25.93
221 31.6858 685.16 638.32 26.18
222 31.7608 629.35 639.77 25.09
223 31.8358 632.09 641.31 25.14
224 31.9108 657.37 642.97 25.64
225 31.9858 647.49 644.78 25.45
226 32.0608 626.45 646.77 25.03
227 32.1358 600.99 649.03 24.52
228 32.2108 612.85 651.75 24.76
229 32.2858 624.44 655.42 24.99
230 32.3608 647.60 661.35 25.45
231 32.4358 648.70 672.60 25.47
232 32.5108 662.40 695.53 25.74
233 32.5858 647.49 741.38 25.45
234 32.6608 755.87 826.47 27.49
235 32.7358 891.73 968.93 29.86
236 32.8108 1082.44 1180.36 32.90
237 32.8858 1286.08 1454.22 35.86
238 32.9608 1513.11 1756.10 38.90
239 33.0358 1706.96 2023.38 41.32
240 33.1108 1908.72 2179.82 43.69
241 33.1858 2071.64 2170.05 45.52
242 33.2608 1920.35 1997.15 43.82
243 33.3358 1711.98 1719.86 41.38
244 33.4108 1456.54 1415.37 38.16
245 33.4858 1158.89 1146.48 34.04
246 33.5608 952.96 945.74 30.87
247 33.6358 814.90 816.05 28.55
248 33.7108 750.54 742.40 27.40
249 33.7858 734.71 705.06 27.11
250 33.8608 756.22 687.80 27.50
251 33.9358 714.04 680.29 26.72
252 34.0108 674.04 677.07 25.96
253 34.0858 700.57 675.63 26.47
254 34.1608 678.34 674.98 26.05
255 34.2358 660.85 674.74 25.71
256 34.3108 618.54 674.74 24.87
257 34.3858 656.10 674.92 25.61
258 34.4608 666.92 675.25 25.82
259 34.5358 704.80 676.10 26.55
260 34.6108 684.22 676.63 26.16
261 34.6858 694.24 677.24 26.35
262 34.7608 649.32 677.91 25.48
263 34.8358 677.82 678.63 26.03
264 34.9108 693.82 679.40 26.34
265 34.9858 718.49 680.21 26.80
266 35.0608 680.43 679.72 26.08
267 35.1358 697.93 679.15 26.42
268 35.2108 708.21 678.61 26.61
269 35.2858 685.28 678.09 26.18
270 35.3608 686.24 677.59 26.20
271 35.4358 691.13 677.12 26.29
272 35.5108 685.59 676.66 26.18
273 35.5858 676.47 676.22 26.01
274 35.6608 692.62 675.80 26.32
275 35.7358 727.01 675.40 26.96
276 35.8108 677.14 675.01 26.02
277 35.8858 660.86 674.64 25.71
278 35.9608 690.06 674.28 26.27
279 36.0358 678.96 674.17 26.06
280 36.1108 687.46 673.85 26.22
281 36.1858 681.76 673.54 26.11
282 36.2608 720.27 673.25 26.84
283 36.3358 687.42 672.98 26.22
284 36.4108 663.72 672.72 25.76
285 36.4858 671.67 672.49 25.92
286 36.5608 724.74 672.27 26.92
287 36.6358 683.78 672.08 26.15
288 36.7108 671.11 671.90 25.91
289 36.7858 655.65 671.76 25.61
290 36.8608 677.08 671.64 26.02
291 36.9358 706.66 671.55 26.58
292 37.0108 691.47 671.49 26.30
293 37.0858 664.43 671.47 25.78
294 37.1608 694.01 671.49 26.34
295 37.2358 653.69 671.23 25.57
296 37.3108 659.69 671.36 25.68
297 37.3858 674.36 673.92 25.97
298 37.4608 692.95 676.87 26.32
299 37.5358 680.60 679.91 26.09
300 37.6108 727.66 683.03 26.98
301 37.6858 719.34 686.28 26.82
302 37.7608 706.22 689.65 26.57
303 37.8358 724.92 693.18 26.92
304 37.9108 704.38 696.90 26.54
305 37.9858 710.17 700.86 26.65
306 38.0608 743.88 705.11 27.27
307 38.1358 727.20 709.74 26.97
308 38.2108 738.64 714.87 27.18
309 38.2858 752.30 720.77 27.43
310 38.3608 790.72 728.11 28.12
311 38.4358 774.15 738.70 27.82
312 38.5108 784.33 757.23 28.01
313 38.5858 824.42 794.40 28.71
314 38.6608 970.02 871.27 31.15
315 38.7358 1096.21 1021.82 33.11
316 38.8108 1309.17 1288.29 36.18
317 38.8858 1704.88 1703.55 41.29
318 38.9608 2352.55 2261.62 48.50
319 39.0358 3042.50 2891.47 55.16
320 39.1108 3659.34 3454.33 60.49
321 39.1858 4007.82 3780.24 63.31
322 39.2608 3969.08 3748.27 63.00
323 39.3358 3495.76 3373.16 59.12
324 39.4108 2835.55 2793.43 53.25
325 39.4858 2195.42 2177.25 46.86
326 39.5608 1559.42 1650.94 39.49
327 39.6358 1234.47 1271.66 35.14
328 39.7108 1064.38 1036.38 32.62
329 39.7858 915.28 909.52 30.25
330 39.8608 876.16 850.30 29.60
331 39.9358 858.32 827.89 29.30
332 40.0108 797.27 825.23 28.24
333 40.0858 892.73 837.92 29.88
334 40.1608 946.17 873.83 30.76
335 40.2358 987.53 955.70 31.42
336 40.3108 1143.84 1123.84 33.82
337 40.3858 1485.74 1431.41 38.55
338 40.4608 1971.14 1923.57 44.40
339 40.5358 2781.55 2600.21 52.74
340 40.6108 3606.94 3379.53 60.06
341 40.6858 4393.22 4091.16 66.28
342 40.7608 4762.51 4519.61 69.01
343 40.8358 4649.83 4504.16 68.19
344 40.9108 4179.98 4053.14 64.65
345 40.9858 3340.69 3337.58 57.80
346 41.0608 2484.16 2570.51 49.84
347 41.1358 1818.22 1912.30 42.64
348 41.2108 1359.48 1436.12 36.87
349 41.2858 1066.80 1138.97 32.66
350 41.3608 919.85 976.55 30.33
351 41.4358 871.70 897.52 29.52
352 41.5108 816.85 862.39 28.58
353 41.5858 837.63 847.49 28.94
354 41.6608 837.64 841.06 28.94
355 41.7358 810.91 838.11 28.48
356 41.8108 808.50 836.74 28.43
357 41.8858 810.34 836.26 28.47
358 41.9608 785.08 836.39 28.02
359 42.0358 809.28 836.99 28.45
360 42.1108 808.06 837.97 28.43
361 42.1858 820.04 839.29 28.64
362 42.2608 812.12 840.88 28.50
363 42.3358 794.03 842.73 28.18
364 42.4108 803.98 844.80 28.35
365 42.4858 823.86 847.08 28.70
366 42.5608 845.41 849.58 29.08
367 42.6358 858.74 851.08 29.30
368 47.7358 809.51 859.98 28.45
369 47.8108 855.82 856.35 29.25
370 47.8858 847.04 850.80 29.10
371 47.9608 845.86 845.40 29.08
372 48.0358 791.66 840.15 28.14
373 48.1108 803.16 835.09 28.34
374 48.1858 839.22 830.31 28.97
375 48.2608 790.82 826.01 28.12
376 48.3358 820.82 823.98 28.65
377 48.4108 824.04 826.99 28.71
378 48.4858 779.12 836.47 27.91
379 48.5608 840.12 860.01 28.98
380 48.6358 791.64 909.81 28.14
381 48.7108 868.91 999.24 29.48
382 48.7858 997.60 1135.01 31.58
383 48.8608 1180.94 1305.00 34.36
384 48.9358 1501.04 1472.55 38.74
385 49.0108 1687.91 1584.63 41.08
386 49.0858 1666.99 1596.16 40.83
387 49.1608 1668.92 1502.07 40.85
388 49.2358 1461.26 1342.44 38.23
389 49.3108 1213.21 1170.00 34.83
390 49.3858 1041.52 1022.87 32.27
391 49.4608 965.10 917.10 31.07
392 49.5358 873.74 851.52 29.56
393 49.6108 805.78 815.41 28.39
394 49.6858 814.44 797.05 28.54
395 49.7608 759.00 787.74 27.55
396 49.8358 778.29 782.49 27.90
397 49.9108 778.16 778.80 27.90
398 49.9858 789.33 775.75 28.09
399 50.0608 775.88 773.00 27.85
400 50.1358 756.71 770.42 27.51
401 50.2108 761.54 768.10 27.60
402 50.2858 781.07 765.75 27.95
403 50.3608 746.77 763.47 27.33
404 50.4358 767.62 761.30 27.71
405 50.5108 769.71 760.89 27.74
406 50.5858 776.25 760.53 27.86
407 50.6608 739.14 760.19 27.19
408 50.7358 775.03 759.89 27.84
409 50.8108 798.71 759.61 28.26
410 50.8858 834.97 759.35 28.90
411 50.9608 801.05 758.85 28.30
412 51.0358 843.31 758.63 29.04
413 51.1108 808.80 758.42 28.44
414 51.1858 779.23 758.22 27.91
415 51.2608 771.75 758.04 27.78
416 51.3358 777.24 757.86 27.88
417 51.4108 766.44 757.69 27.68
418 51.4858 761.96 757.53 27.60
419 51.5608 751.45 757.37 27.41
420 51.6358 778.80 757.22 27.91
421 51.7108 766.72 757.07 27.69
422 51.7858 807.54 756.93 28.42
423 51.8608 779.75 756.80 27.92
424 51.9358 763.85 756.67 27.64
425 52.0108 753.18 756.54 27.44
426 52.0858 766.82 756.42 27.69
427 52.1608 725.61 756.30 26.94
428 52.2358 756.18 756.18 27.50
429 52.3108 773.66 756.07 27.81
430 52.3858 764.21 755.97 27.64
431 52.4608 759.19 755.87 27.55
432 52.5358 781.10 755.77 27.95
433 52.6108 769.97 755.69 27.75
434 52.6858 763.17 755.61 27.63
435 52.7608 740.93 755.54 27.22
436 52.8358 748.14 755.48 27.35
437 52.9108 774.96 755.47 27.84
438 52.9858 762.22 755.53 27.61
439 53.0608 744.49 755.86 27.29
440 53.1358 746.74 756.72 27.33
441 53.2108 744.60 758.56 27.29
442 53.2858 756.20 762.02 27.50
443 53.3608 795.19 767.62 28.20
444 53.4358 800.60 775.10 28.29
445 53.5108 795.38 783.07 28.20
446 53.5858 820.05 789.09 28.64
447 53.6608 803.33 790.79 28.34
448 53.7358 825.70 787.46 28.73
449 53.8108 791.83 780.70 28.14
450 53.8858 771.24 773.04 27.77
451 53.9608 741.61 766.40 27.23
452 54.0358 763.18 761.62 27.63
453 54.1108 771.20 758.68 27.77
454 54.1858 752.97 757.13 27.44
455 54.2608 757.89 756.42 27.53
456 54.3358 752.42 756.15 27.43
457 54.4108 743.12 755.66 27.26
458 54.4858 761.16 755.69 27.59
459 54.5608 795.91 755.79 28.21
460 54.6358 749.56 755.99 27.38
461 54.7108 756.46 756.41 27.50
462 54.7858 749.41 757.35 27.38
463 54.8608 746.28 759.34 27.32
464 54.9358 746.72 763.08 27.33
465 55.0108 743.49 769.10 27.27
466 55.0858 746.85 777.10 27.33
467 55.1608 775.49 785.50 27.85
468 55.2358 769.16 791.67 27.73
469 55.3108 755.41 793.15 27.48
470 55.3858 778.56 789.33 27.90
471 55.4608 806.41 782.13 28.40
472 55.5358 756.75 774.23 27.51
473 55.6108 739.25 767.56 27.19
474 55.6858 761.50 762.90 27.60
475 55.7608 810.88 759.92 28.48
476 55.8358 727.65 758.57 26.97
477 55.9108 775.32 758.08 27.84
478 55.9858 730.74 758.02 27.03
479 56.0608 716.65 758.17 26.77
480 56.1358 733.06 758.43 27.08
481 56.2108 764.69 758.77 27.65
482 56.2858 768.20 759.16 27.72
483 56.3608 735.62 759.63 27.12
484 56.4358 746.35 760.18 27.32
485 56.5108 729.93 760.89 27.02
486 56.5858 749.48 761.79 27.38
487 56.6608 740.46 762.77 27.21
488 56.7358 732.91 763.91 27.07
489 56.8108 722.61 765.27 26.88
490 56.8858 734.68 766.93 27.10
491 56.9608 734.57 769.00 27.10
492 57.0358 756.96 771.71 27.51
493 57.1108 764.04 775.66 27.64
494 57.1858 753.37 782.54 27.45
495 57.2608 789.18 796.98 28.09
496 57.3358 782.50 830.03 27.97
497 57.4108 837.56 903.26 28.94
498 57.4858 960.23 1048.43 30.99
499 57.5608 1178.11 1294.58 34.32
500 57.6358 1589.39 1639.53 39.87
501 57.7108 2019.43 2022.62 44.94
502 57.7858 2376.45 2328.02 48.75
503 57.8608 2526.83 2433.28 50.27
504 57.9358 2393.23 2290.81 48.92
505 58.0108 2007.50 1974.06 44.81
506 58.0858 1638.33 1609.73 40.48
507 58.1608 1235.18 1293.19 35.15
508 58.2358 1023.19 1065.81 31.99
509 58.3108 917.56 926.76 30.29
510 58.3858 822.90 854.64 28.69
511 58.4608 821.44 825.94 28.66
512 58.5358 836.80 826.12 28.93
513 58.6108 819.79 853.43 28.63
514 58.6858 899.76 916.66 30.00
515 58.7608 992.21 1027.09 31.50
516 58.8358 1199.66 1186.39 34.64
517 58.9108 1422.49 1378.08 37.72
518 58.9858 1596.46 1574.73 39.96
519 59.0608 1799.17 1759.65 42.42
520 59.1358 1972.48 1947.34 44.41
521 59.2108 2242.89 2167.61 47.36
522 59.2858 2476.30 2405.37 49.76
523 59.3608 2679.23 2574.15 51.76
524 59.4358 2737.87 2564.81 52.32
525 59.5108 2515.69 2338.46 50.16
526 59.5858 2058.21 1972.66 45.37
527 59.6608 1608.80 1588.01 40.11
528 59.7358 1242.55 1268.29 35.25
529 59.8108 1050.99 1044.43 32.42
530 59.8858 869.91 909.01 29.49
531 59.9608 838.52 837.18 28.96
532 60.0358 798.98 802.97 28.27
533 60.1108 769.16 787.53 27.73
534 60.1858 759.58 780.19 27.56
535 60.2608 726.51 776.04 26.95
536 60.3358 755.92 773.19 27.49
537 60.4108 758.35 771.13 27.54
538 60.4858 745.39 769.34 27.30
539 60.5608 742.19 767.92 27.24
540 60.6358 749.61 765.50 27.38
541 60.7108 734.49 762.94 27.10
542 60.7858 748.35 760.56 27.36
543 60.8608 757.53 758.33 27.52
544 60.9358 771.52 756.25 27.78
545 61.0108 760.22 754.46 27.57
546 61.0858 747.90 752.78 27.35
547 61.1608 791.54 751.60 28.13
548 61.2358 731.14 751.57 27.04
549 61.3108 802.03 754.02 28.32
550 61.3858 780.79 761.01 27.94
551 61.4608 762.64 774.56 27.62
552 61.5358 817.76 794.74 28.60
553 61.6108 827.69 817.68 28.77
554 61.6858 898.85 835.70 29.98
555 61.7608 882.88 840.59 29.71
556 61.8358 911.28 829.26 30.19
557 61.9108 890.47 806.80 29.84
558 61.9858 817.60 781.71 28.59
559 62.0608 748.93 760.05 27.37
560 62.1358 709.10 744.21 26.63
561 62.2108 714.13 733.92 26.72
562 62.2858 699.25 727.70 26.44
563 62.3608 755.01 723.90 27.48
564 62.4358 745.67 721.33 27.31
565 62.5108 721.12 719.29 26.85
566 62.5858 693.86 717.46 26.34
567 62.6608 729.28 718.55 27.01
568 62.7358 711.03 720.24 26.67
569 62.8108 726.12 721.97 26.95
570 62.8858 712.09 723.72 26.69
571 62.9608 704.68 725.49 26.55
572 63.0358 680.81 727.28 26.09
573 63.1108 761.97 729.09 27.60
574 63.1858 776.43 730.91 27.86
575 63.2608 747.28 732.76 27.34
576 63.3358 728.01 734.61 26.98
577 63.4108 741.68 736.49 27.23
578 63.4858 749.03 738.38 27.37
579 63.5608 747.31 740.29 27.34
580 63.6358 775.96 742.21 27.86
581 63.7108 790.88 744.16 28.12
582 63.7858 756.51 746.12 27.50
583 63.8608 730.73 748.11 27.03
584 63.9358 760.73 750.12 27.58
585 64.0108 739.30 752.17 27.19
586 64.0858 758.47 754.25 27.54
587 64.1608 725.51 756.36 26.94
588 67.9858 794.82 809.88 28.19
589 68.0608 787.57 808.94 28.06
590 68.1358 777.01 808.68 27.87
591 68.2108 795.32 808.92 28.20
592 68.2858 825.29 809.61 28.73
593 68.3608 795.61 810.72 28.21
594 68.4358 802.57 812.44 28.33
595 68.5108 811.11 814.82 28.48
596 68.5858 810.79 818.12 28.47
597 68.6608 780.83 822.88 27.94
598 68.7358 823.79 830.56 28.70
599 68.8108 838.16 845.68 28.95
600 68.8858 860.55 879.30 29.34
601 68.9608 947.81 955.43 30.79
602 69.0358 1130.43 1113.97 33.62
603 69.1108 1394.28 1399.21 37.34
604 69.1858 1762.10 1824.83 41.98
605 69.2608 2251.48 2330.86 47.45
606 69.3358 2744.27 2775.49 52.39
607 69.4108 3143.69 2993.33 56.07
608 69.4858 3098.68 2911.05 55.67
609 69.5608 2874.46 2623.80 53.61
610 69.6358 2498.26 2322.99 49.98
611 69.7108 2280.32 2170.02 47.75
612 69.7858 2166.86 2213.31 46.55
613 69.8608 2290.07 2371.59 47.85
614 69.9358 2396.15 2484.78 48.95
615 70.0108 2409.61 2413.28 49.09
616 70.0858 2142.68 2141.70 46.29
617 70.1608 1838.38 1777.66 42.88
618 70.2358 1558.45 1436.91 39.48
619 70.3108 1293.28 1178.39 35.96
620 70.3858 1091.53 1010.84 33.04
621 70.4608 956.41 917.51 30.93
622 70.5358 887.38 875.59 29.79
623 70.6108 884.52 866.51 29.74
624 70.6858 851.65 878.09 29.18
625 70.7608 888.00 901.03 29.80
626 70.8358 944.86 924.75 30.74
627 70.9108 952.14 937.59 30.86
628 70.9858 921.23 931.86 30.35
629 71.0608 901.48 910.00 30.02
630 71.1358 868.64 881.90 29.47
631 71.2108 837.19 856.50 28.93
632 71.2858 839.25 837.78 28.97
633 71.3608 774.78 825.99 27.83
634 71.4358 789.53 819.61 28.10
635 71.5108 827.96 816.78 28.77
636 71.5858 830.07 815.95 28.81
637 71.6608 823.89 816.19 28.70
638 71.7358 836.52 817.02 28.92
639 71.8108 849.13 818.29 29.14
640 71.8858 819.54 819.96 28.63
641 71.9608 810.97 822.09 28.48
642 72.0358 794.29 824.75 28.18
643 72.1108 811.81 827.59 28.49
644 72.1858 813.85 831.28 28.53
645 72.2608 802.27 836.12 28.32
646 72.3358 837.84 842.63 28.95
647 72.4108 832.25 851.84 28.85
648 72.4858 853.21 866.39 29.21
649 72.5608 865.75 893.79 29.42
650 72.6358 955.65 954.61 30.91
651 72.7108 1075.98 1097.23 32.80
652 72.7858 1366.26 1412.07 36.96
653 72.8608 1926.87 2019.08 43.90
654 72.9358 2925.76 2992.35 54.09
655 73.0108 4163.57 4235.93 64.53
656 73.0858 5559.86 5415.06 74.56
657 73.1608 6083.05 6063.98 77.99
658 73.2358 5920.27 5868.67 76.94
659 73.3108 4984.76 4950.95 70.60
660 73.3858 3851.65 3763.83 62.06
661 73.4608 2758.27 2694.76 52.52
662 73.5358 1917.70 1908.98 43.79
663 73.6108 1478.45 1408.65 38.45
664 73.6858 1253.47 1125.05 35.40
665 73.7608 1051.96 978.47 32.43
666 73.8358 973.47 906.61 31.20
667 73.9108 918.46 870.63 30.31
668 73.9858 873.92 850.59 29.56
669 74.0608 868.20 837.82 29.47
670 74.1358 816.29 828.82 28.57
671 74.2108 772.33 822.08 27.79
672 74.2858 781.87 816.81 27.96
673 74.3608 823.62 812.54 28.70
674 74.4358 785.76 808.99 28.03
675 74.5108 776.55 805.98 27.87
676 74.5858 788.27 803.40 28.08
677 74.6608 786.88 801.17 28.05
678 74.7358 795.62 799.23 28.21
679 74.8108 796.76 797.46 28.23
680 74.8858 795.28 795.97 28.20
681 74.9608 793.01 794.83 28.16
682 75.0358 813.57 793.67 28.52
683 75.1108 808.39 792.65 28.43
684 75.1858 780.97 791.76 27.95
685 75.2608 790.04 791.14 28.11
686 75.3358 784.33 790.78 28.01
687 75.4108 810.55 790.53 28.47
688 75.4858 805.96 790.39 28.39
689 75.5608 761.72 790.37 27.60
690 75.6358 754.62 790.47 27.47
691 75.7108 798.77 790.72 28.26
692 75.7858 799.02 791.17 28.27
693 75.8608 784.22 791.82 28.00
694 75.9358 763.24 792.78 27.63
695 76.0108 763.47 794.13 27.63
696 76.0858 795.41 796.46 28.20
697 76.1608 785.99 800.89 28.04
698 76.2358 771.89 810.64 27.78
699 76.3108 810.79 833.26 28.47
700 76.3858 823.23 883.00 28.69
701 76.4608 939.46 978.61 30.65
702 76.5358 1117.37 1131.82 33.43
703 76.6108 1297.28 1327.95 36.02
704 76.6858 1546.64 1514.96 39.33
705 76.7608 1531.33 1620.95 39.13
706 76.8358 1510.62 1598.44 38.87
707 76.9108 1501.79 1468.61 38.75
708 76.9858 1284.88 1304.34 35.85
709 77.0608 1159.65 1164.44 34.05
710 77.1358 1119.54 1067.01 33.46
711 77.2108 1032.28 1002.87 32.13
712 77.2858 1018.05 957.56 31.91
713 77.3608 981.36 927.31 31.33
714 77.4358 958.81 920.90 30.96
715 77.5108 947.36 950.46 30.78
716 77.5858 1077.24 1021.01 32.82
717 77.6608 1205.14 1119.96 34.72
718 77.7358 1250.66 1213.57 35.36
719 77.8108 1300.24 1259.34 36.06
720 77.8858 1268.93 1231.05 35.62
721 77.9608 1176.90 1143.45 34.31
722 78.0358 1079.10 1037.30 32.85
723 78.1108 977.05 944.66 31.26
724 78.1858 940.86 877.81 30.67
725 78.2608 895.21 835.47 29.92
726 78.3358 851.26 811.65 29.18
727 78.4108 851.94 799.63 29.19
728 78.4858 836.53 793.92 28.92
729 78.5608 822.18 791.40 28.67
730 78.6358 837.04 790.10 28.93
731 78.7108 798.17 789.38 28.25
732 78.7858 737.16 788.92 27.15
733 78.8608 826.27 789.86 28.74
734 78.9358 834.46 793.63 28.89
735 79.0108 796.07 797.88 28.21
736 79.0858 809.48 801.84 28.45
737 79.1608 821.16 806.12 28.66
738 79.2358 834.21 810.61 28.88
739 79.3108 848.68 815.36 29.13
740 79.3858 816.24 820.49 28.57
741 79.4608 839.24 825.97 28.97
742 79.5358 834.17 832.55 28.88
743 79.6108 848.40 842.00 29.13
744 79.6858 850.79 858.70 29.17
745 79.7608 936.24 892.46 30.60
746 79.8358 1006.94 960.57 31.73
747 79.9108 1029.49 1083.93 32.09
748 79.9858 1217.27 1272.03 34.89
749 80.0608 1487.50 1501.00 38.57
750 80.1358 1655.44 1705.62 40.69
751 80.2108 1745.67 1804.04 41.78
752 80.2858 1702.26 1749.84 41.26
753 80.3608 1571.85 1576.11 39.65
754 80.4358 1324.13 1366.47 36.39
755 80.5108 1150.46 1185.02 33.92
756 80.5858 1026.41 1055.14 32.04
757 80.6608 946.05 974.26 30.76
758 80.7358 905.83 930.09 30.10
759 80.8108 880.69 909.49 29.68
760 80.8858 911.57 902.00 30.19
761 80.9608 900.71 900.83 30.01
762 86.3608 992.98 1034.49 31.51
763 86.4358 1001.00 1039.86 31.64
764 86.5108 991.60 1044.39 31.49
765 86.5858 1035.86 1052.28 32.18
766 86.6608 1016.47 1067.29 31.88
767 86.7358 1022.29 1099.32 31.97
768 86.8108 1131.02 1171.54 33.63
769 86.8858 1277.65 1329.50 35.74
770 86.9608 1565.88 1641.73 39.57
771 87.0358 2106.94 2173.00 45.90
772 87.1108 2954.94 2923.19 54.36
773 87.1858 3915.70 3764.32 62.58
774 87.2608 4498.47 4450.78 67.07
775 87.3358 4802.32 4737.43 69.30
776 87.4108 4484.88 4555.99 66.97
777 87.4858 3981.26 4102.51 63.10
778 87.5608 3586.68 3659.90 59.89
779 87.6358 3267.71 3355.06 57.16
780 87.7108 3060.42 3131.34 55.32
781 87.7858 2863.64 2867.68 53.51
782 87.8608 2576.51 2509.09 50.76
783 87.9358 2165.56 2112.10 46.54
784 88.0108 1791.00 1769.35 42.32
785 88.0858 1547.00 1537.93 39.33
786 88.1608 1412.49 1444.77 37.58
787 88.2358 1429.48 1519.22 37.81
788 88.3108 1713.05 1807.49 41.39
789 88.3858 2234.78 2346.26 47.27
790 88.4608 3124.66 3099.68 55.90
791 88.5358 3976.46 3903.43 63.06
792 88.6108 4538.31 4487.12 67.37
793 88.6858 4616.73 4598.59 67.95
794 88.7608 4164.13 4179.02 64.53
795 88.8358 3354.78 3433.07 57.92
796 88.9108 2553.02 2652.91 50.53
797 88.9858 1966.79 2017.15 44.35
798 89.0608 1557.13 1569.71 39.46
799 89.1358 1293.24 1284.03 35.96
800 89.2108 1121.30 1115.62 33.49
801 89.2858 1048.64 1023.66 32.38
802 89.3608 984.24 976.31 31.37
803 89.4358 961.75 951.87 31.01
804 89.5108 933.20 937.70 30.55
805 89.5858 913.97 927.93 30.23
806 89.6608 923.41 920.05 30.39
807 89.7358 904.69 913.22 30.08
808 89.8108 862.74 907.17 29.37
809 89.8858 918.53 901.80 30.31
810 89.9608 904.87 897.14 30.08
811 90.0358 881.85 894.87 29.70
812 90.1108 883.13 894.12 29.72
813 90.1858 916.47 896.18 30.27
814 90.2608 915.32 903.57 30.25
815 90.3358 874.61 919.75 29.57
816 90.4108 966.24 947.50 31.08
817 90.4858 992.56 985.71 31.50
818 90.5608 998.44 1026.72 31.60
819 90.6358 1028.36 1057.33 32.07
820 90.7108 1021.07 1064.82 31.95
821 90.7858 1001.32 1045.44 31.64
822 90.8608 946.23 1008.59 30.76
823 90.9358 934.61 969.20 30.57
824 91.0108 885.63 937.42 29.76
825 91.0858 894.12 916.99 29.90
826 91.1608 926.04 909.02 30.43
827 91.2358 910.59 916.75 30.18
828 91.3108 954.81 949.83 30.90
829 91.3858 1043.28 1027.35 32.30
830 91.4608 1169.44 1175.56 34.20
831 91.5358 1475.73 1414.10 38.42
832 91.6108 1777.08 1731.19 42.16
833 91.6858 2043.77 2063.72 45.21
834 91.7608 2221.44 2307.55 47.13
835 91.8358 2179.06 2364.82 46.68
836 91.9108 2027.19 2208.72 45.02
837 91.9858 1787.17 1913.51 42.28
838 92.0608 1513.13 1594.75 38.90
839 92.1358 1313.05 1328.90 36.24
840 92.2108 1200.71 1138.01 34.65
841 92.2858 1063.02 1013.37 32.60
842 92.3608 962.22 937.66 31.02
843 92.4358 942.23 894.87 30.70
844 92.5108 925.71 872.33 30.43
845 92.5858 877.77 860.95 29.63
846 92.6608 851.30 855.03 29.18
847 92.7358 877.72 851.54 29.63
848 92.8108 832.30 849.20 28.85
849 92.8858 842.03 847.43 29.02
850 92.9608 820.88 846.15 28.65
851 93.0358 881.43 845.66 29.69
852 93.1108 860.22 847.38 29.33
853 93.1858 842.49 849.68 29.03
854 93.2608 872.83 852.81 29.54
855 93.3358 938.02 856.98 30.63
856 93.4108 911.81 863.04 30.20
857 93.4858 874.76 873.05 29.58
858 93.5608 908.35 891.88 30.14
859 93.6358 980.56 930.25 31.31
860 93.7108 1064.84 1007.80 32.63
861 93.7858 1259.01 1152.54 35.48
862 93.8608 1521.82 1391.19 39.01
863 93.9358 1755.87 1725.07 41.90
864 94.0108 2178.04 2106.30 46.67
865 94.0858 2501.69 2435.50 50.02
866 94.1608 2562.35 2597.83 50.62
867 94.2358 2468.40 2527.29 49.68
868 94.3108 2096.27 2261.33 45.78
869 94.3858 1866.70 1921.53 43.21
870 94.4608 1655.17 1626.01 40.68
871 94.5358 1498.25 1443.25 38.71
872 94.6108 1488.64 1406.40 38.58
873 94.6858 1679.02 1536.57 40.98
874 94.7608 1948.19 1841.90 44.14
875 94.8358 2347.72 2295.15 48.45
876 94.9108 2740.52 2814.94 52.35
877 94.9858 3181.53 3278.22 56.41
878 95.0608 3576.10 3564.67 59.80
879 95.1358 3525.87 3614.33 59.38
880 95.2108 3444.65 3454.13 58.69
881 95.2858 3128.34 3147.71 55.93
882 95.3608 2696.46 2743.38 51.93
883 95.4358 2178.98 2292.94 46.68
884 95.5108 1745.49 1867.09 41.78
885 95.5858 1494.46 1522.10 38.66
886 95.6608 1307.59 1275.22 36.16
887 95.7358 1159.79 1113.77 34.06
888 95.8108 1089.59 1014.60 33.01
889 95.8858 1007.86 956.50 31.75
890 95.9608 941.76 923.97 30.69
891 96.0358 984.32 906.49 31.37
892 96.1108 929.28 897.21 30.48
893 96.1858 951.01 892.05 30.84
894 96.2608 931.58 888.96 30.52
895 96.3358 936.22 886.80 30.60
896 96.4108 917.55 885.27 30.29
897 96.4858 874.96 884.23 29.58
898 96.5608 842.37 883.63 29.02
899 96.6358 848.70 883.47 29.13
900 96.7108 908.91 884.21 30.15
901 96.7858 884.65 885.93 29.74
902 96.8608 905.62 888.34 30.09
903 96.9358 935.15 892.06 30.58
904 97.0108 921.55 898.13 30.36
905 97.0858 923.57 910.16 30.39
906 97.1608 938.55 933.48 30.64
907 97.2358 939.17 976.93 30.65
908 97.3108 1051.27 1050.72 32.42
909 97.3858 1157.55 1160.91 34.02
910 97.4608 1314.02 1301.17 36.25
911 97.5358 1541.46 1447.31 39.26
912 97.6108 1601.32 1562.88 40.02
913 97.6858 1614.46 1614.50 40.18
914 97.7608 1617.76 1594.04 40.22
915 97.8358 1499.08 1529.37 38.72
916 97.9108 1387.26 1466.56 37.25
917 97.9858 1404.56 1437.03 37.48
918 98.0608 1446.45 1440.98 38.03
919 98.1358 1393.95 1453.27 37.34
920 98.2108 1380.19 1442.13 37.15
921 98.2858 1335.71 1389.17 36.55
922 98.3608 1282.03 1301.28 35.81
923 98.4358 1194.80 1203.32 34.57
924 98.5108 1070.92 1117.17 32.72
925 98.5858 1015.69 1053.47 31.87
926 98.6608 1053.45 1012.60 32.46
927 98.7358 976.97 992.12 31.26
928 98.8108 947.40 989.23 30.78
929 103.5362 865.46 864.13 29.42
930 103.6112 861.06 863.93 29.34
931 103.6862 863.42 863.91 29.38
932 103.7612 838.50 865.27 28.96
933 103.8362 896.04 867.31 29.93
934 103.9112 883.43 870.07 29.72
935 103.9862 918.31 874.22 30.30
936 104.0612 881.99 881.17 29.70
937 104.1362 920.85 893.58 30.35
938 104.2112 930.70 915.94 30.51
939 104.2862 963.91 954.44 31.05
940 104.3612 1061.26 1015.55 32.58
941 104.4362 1132.23 1102.62 33.65
942 104.5112 1209.22 1211.51 34.77
943 104.5862 1350.42 1327.92 36.75
944 104.6612 1456.79 1430.75 38.17
945 104.7362 1545.83 1499.95 39.32
946 104.8112 1538.61 1528.85 39.23
947 104.8862 1503.05 1532.08 38.77
948 104.9612 1541.95 1540.84 39.27
949 105.0362 1559.03 1582.20 39.48
950 105.1112 1692.13 1659.25 41.14
951 105.1862 1786.67 1747.83 42.27
952 105.2612 1853.58 1808.97 43.05
953 105.3362 1835.92 1808.56 42.85
954 105.4112 1656.35 1735.29 40.70
955 105.4862 1538.36 1607.52 39.22
956 105.5612 1360.39 1459.85 36.88
957 105.6362 1262.81 1321.43 35.54
958 105.7112 1170.85 1205.05 34.22
959 105.7862 1111.72 1112.21 33.34
960 105.8612 1034.69 1040.29 32.17
961 105.9362 963.65 986.90 31.04
962 106.0112 988.59 949.21 31.44
963 106.0862 916.58 924.13 30.27
964 106.1612 923.14 908.32 30.38
965 106.2362 861.53 898.73 29.35
966 106.3112 850.79 893.03 29.17
967 106.3862 880.78 889.70 29.68
968 106.4612 877.96 887.73 29.63
969 106.5362 891.85 886.60 29.86
970 106.6112 896.70 885.95 29.94
971 106.6862 929.62 885.63 30.49
972 106.7612 887.47 885.46 29.79
973 106.8362 867.56 885.43 29.45
974 106.9112 848.72 885.50 29.13
975 106.9862 914.78 885.66 30.25
976 107.0612 893.08 885.89 29.88
977 107.1362 873.35 886.21 29.55
978 107.2112 899.93 886.59 30.00
979 107.2862 854.59 887.06 29.23
980 107.3612 854.12 887.67 29.23
981 107.4362 892.95 888.45 29.88
982 107.5112 901.78 889.29 30.03
983 107.5862 910.52 890.21 30.17
984 107.6612 869.28 891.21 29.48
985 107.7362 831.57 892.29 28.84
986 107.8112 873.85 893.47 29.56
987 107.8862 933.45 894.76 30.55
988 107.9612 895.92 896.19 29.93
989 108.0362 832.02 897.80 28.84
990 108.1112 858.13 899.64 29.29
991 108.1862 904.47 901.80 30.07
992 108.2612 873.37 904.45 29.55
993 108.3362 857.74 907.93 29.29
994 108.4112 917.81 912.92 30.30
995 108.4862 890.35 920.83 29.84
996 108.5612 968.73 934.31 31.12
997 108.6362 992.32 958.19 31.50
998 108.7112 1016.34 999.69 31.88
999 108.7862 1065.64 1068.26 32.64
1000 108.8612 1184.11 1173.17 34.41
1001 108.9362 1322.27 1318.93 36.36
1002 109.0112 1542.58 1499.38 39.28
1003 109.0862 1746.35 1693.84 41.79
1004 109.1612 1900.89 1869.18 43.60
1005 109.2362 1981.66 1989.29 44.52
1006 109.3112 2005.36 2029.56 44.78
1007 109.3862 1949.26 1990.77 44.15
1008 109.4612 1878.19 1903.80 43.34
1009 109.5362 1784.13 1815.70 42.24
1010 109.6112 1763.66 1763.71 42.00
1011 109.6862 1766.79 1757.65 42.03
1012 109.7612 1842.23 1779.69 42.92
1013 109.8362 1816.66 1796.79 42.62
1014 109.9112 1722.92 1777.06 41.51
1015 109.9862 1637.31 1703.87 40.46
1016 110.0612 1587.06 1583.49 39.84
1017 110.1362 1403.39 1440.44 37.46
1018 110.2112 1262.56 1302.53 35.53
1019 110.2862 1157.05 1187.92 34.02
1020 110.3612 1093.62 1102.30 33.07
1021 110.4362 1026.61 1042.55 32.04
1022 110.5112 1022.90 1002.28 31.98
1023 110.5862 954.76 975.51 30.90
1024 110.6612 951.85 957.92 30.85
1025 110.7362 966.45 946.72 31.09
1026 110.8112 950.07 940.01 30.82
1027 110.8862 907.21 936.40 30.12
1028 110.9612 1019.38 934.86 31.93
1029 111.0362 919.21 934.77 30.32
1030 111.1112 914.09 935.07 30.23
1031 111.1862 927.74 936.25 30.46
1032 111.2612 919.14 938.64 30.32
1033 111.3362 935.93 943.06 30.59
1034 111.4112 959.20 951.18 30.97
1035 111.4862 939.83 965.92 30.66
1036 111.5612 981.30 991.81 31.33
1037 111.6362 993.91 1035.03 31.53
1038 111.7112 1066.52 1102.28 32.66
1039 111.7862 1211.33 1198.52 34.80
1040 111.8612 1383.83 1323.21 37.20
1041 111.9362 1547.73 1467.01 39.34
1042 112.0112 1693.75 1610.54 41.16
1043 112.0862 1797.54 1727.24 42.40
1044 112.1612 1830.22 1790.81 42.78
1045 112.2362 1699.94 1784.27 41.23
1046 112.3112 1626.19 1708.20 40.33
1047 112.3862 1563.57 1582.59 39.54
1048 112.4612 1434.17 1438.46 37.87
1049 112.5362 1243.78 1303.65 35.27
1050 112.6112 1157.32 1194.20 34.02
1051 112.6862 1120.63 1114.24 33.48
1052 112.7612 1118.44 1060.68 33.44
1053 112.8362 1057.49 1028.46 32.52
1054 112.9112 1022.89 1014.13 31.98
1055 112.9862 1051.70 1017.18 32.43
1056 113.0612 1034.85 1039.81 32.17
1057 113.1362 1116.37 1085.66 33.41
1058 113.2112 1184.83 1157.71 34.42
1059 113.2862 1277.00 1255.46 35.74
1060 113.3612 1401.49 1372.22 37.44
1061 113.4362 1543.41 1493.72 39.29
1062 113.5112 1678.67 1599.53 40.97
1063 113.5862 1727.04 1667.66 41.56
1064 113.6612 1705.09 1681.44 41.29
1065 113.7362 1584.90 1636.11 39.81
1066 113.8112 1539.41 1542.36 39.24
1067 113.8862 1399.87 1422.82 37.41
1068 113.9612 1263.55 1302.12 35.55
1069 114.0362 1218.37 1197.61 34.91
1070 114.1112 1188.21 1116.57 34.47
1071 114.1862 1084.53 1058.29 32.93
1072 114.2612 1076.56 1018.11 32.81
1073 114.3362 1064.89 990.79 32.63
1074 114.4112 1028.99 972.16 32.08
1075 114.4862 1009.94 959.51 31.78
1076 114.5612 971.17 951.09 31.16
1077 114.6362 989.56 945.72 31.46
1078 114.7112 939.62 942.50 30.65
1079 121.6862 1138.60 1179.09 33.74
1080 121.7612 1142.93 1171.82 33.81
1081 121.8362 1197.98 1170.37 34.61
1082 121.9112 1169.69 1174.98 34.20
1083 121.9862 1171.95 1185.89 34.23
1084 122.0612 1186.50 1203.44 34.45
1085 122.1362 1229.78 1227.62 35.07
1086 122.2112 1305.97 1257.70 36.14
1087 122.2862 1272.57 1291.73 35.67
1088 122.3612 1329.40 1326.59 36.46
1089 122.4362 1293.93 1358.21 35.97
1090 122.5112 1322.17 1382.14 36.36
1091 122.5862 1403.79 1394.86 37.47
1092 122.6612 1394.65 1394.29 37.35
1093 122.7362 1314.68 1380.97 36.26
1094 122.8112 1304.15 1358.27 36.11
1095 122.8862 1292.18 1332.00 35.95
1096 122.9612 1220.60 1309.15 34.94
1097 123.0362 1241.34 1296.60 35.23
1098 123.1112 1239.05 1300.28 35.20
1099 123.1862 1251.28 1324.86 35.37
1100 123.2612 1326.80 1373.65 36.43
1101 123.3362 1404.24 1448.15 37.47
1102 123.4112 1579.60 1547.51 39.74
1103 123.4862 1727.36 1667.33 41.56
1104 123.5612 1932.44 1799.12 43.96
1105 123.6362 2107.51 1930.32 45.91
1106 123.7112 2266.72 2045.46 47.61
1107 123.7862 2303.18 2128.72 47.99
1108 123.8612 2270.82 2167.03 47.65
1109 123.9362 2154.57 2153.55 46.42
1110 124.0112 2009.96 2090.05 44.83
1111 124.0862 1865.89 1987.71 43.20
1112 124.1612 1837.55 1864.73 42.87
1113 124.2362 1662.39 1741.72 40.77
1114 124.3112 1508.05 1636.33 38.83
1115 124.3862 1497.61 1560.05 38.70
1116 124.4612 1501.90 1517.43 38.75
1117 124.5362 1557.16 1507.04 39.46
1118 124.6112 1570.69 1523.35 39.63
1119 124.6862 1602.24 1558.66 40.03
1120 124.7612 1632.28 1604.83 40.40
1121 124.8362 1694.99 1654.43 41.17
1122 124.9112 1732.14 1701.56 41.62
1123 124.9862 1780.08 1742.25 42.19
1124 125.0612 1787.20 1774.66 42.28
1125 125.1362 1756.19 1798.81 41.91
1126 125.2112 1793.72 1815.79 42.35
1127 125.2862 1845.68 1826.58 42.96
1128 125.3612 1916.52 1831.08 43.78
1129 125.4362 1957.82 1827.81 44.25
1130 125.5112 1865.22 1814.39 43.19
1131 125.5862 1824.72 1788.31 42.72
1132 125.6612 1784.98 1747.89 42.25
1133 125.7362 1715.03 1693.32 41.41
1134 125.8112 1635.86 1627.41 40.45
1135 125.8862 1531.40 1555.71 39.13
1136 125.9612 1461.31 1485.54 38.23
1137 126.0362 1417.92 1424.17 37.66
1138 126.1112 1340.89 1377.41 36.62
1139 126.1862 1313.69 1348.62 36.24
1140 126.2612 1317.67 1338.56 36.30
1141 126.3362 1351.14 1345.90 36.76
1142 126.4112 1319.52 1367.27 36.33
1143 126.4862 1402.54 1397.98 37.45
1144 126.5612 1408.39 1432.49 37.53
1145 126.6362 1486.45 1464.90 38.55
1146 126.7112 1461.17 1489.61 38.23
1147 126.7862 1442.02 1501.95 37.97
1148 126.8612 1447.35 1498.93 38.04
1149 126.9362 1502.23 1479.82 38.76
1150 127.0112 1390.91 1446.41 37.29
1151 127.0862 1312.62 1402.76 36.23
1152 127.1612 1335.64 1354.25 36.55
1153 127.2362 1284.70 1306.28 35.84
1154 127.3112 1227.25 1263.14 35.03
1155 127.3862 1161.77 1227.37 34.08
1156 127.4612 1181.22 1199.82 34.37
1157 127.5362 1161.02 1180.02 34.07
1158 127.6112 1190.05 1166.65 34.50
1159 127.6862 1147.85 1158.16 33.88
1160 127.7612 1095.75 1153.06 33.10
1161 127.8362 1128.17 1150.16 33.59
1162 127.9112 1145.99 1148.64 33.85
1163 127.9862 1185.13 1147.96 34.43
1164 128.0612 1134.59 1147.81 33.68
1165 128.1362 1158.84 1148.32 34.04
1166 128.2112 1160.62 1149.18 34.07
1167 128.2862 1134.83 1150.33 33.69
1168 128.3612 1177.85 1151.78 34.32
1169 128.4362 1193.14 1153.59 34.54
1170 128.5112 1195.89 1155.76 34.58
1171 128.5862 1166.16 1158.26 34.15
1172 128.6612 1163.35 1160.95 34.11
1173 128.7362 1171.49 1163.60 34.23
1174 128.8112 1189.30 1165.94 34.49
1175 128.8862 1205.51 1167.69 34.72
1176 128.9612 1163.93 1168.60 34.12
1177 129.0362 1195.97 1168.53 34.58
1178 129.1112 1172.11 1167.46 34.24
1179 129.1862 1202.20 1165.48 34.67
1180 129.2612 1151.05 1162.74 33.93
1181 129.3362 1161.84 1159.45 34.09
1182 129.4112 1176.31 1155.81 34.30
1183 129.4862 1166.61 1152.04 34.16
1184 129.5612 1171.11 1148.38 34.22
1185 129.6362 1179.20 1145.01 34.34
1186 129.7112 1147.74 1142.10 33.88
1187 129.7862 1165.85 1139.74 34.14
1188 129.8612 1118.22 1137.95 33.44
1189 129.9362 1170.50 1136.70 34.21
1190 130.0112 1121.24 1135.92 33.48
1191 130.0862 1110.32 1135.54 33.32
1192 130.1612 1136.03 1135.45 33.71
1193 130.2362 1153.89 1135.59 33.97
1194 130.3112 1145.65 1135.88 33.85
1195 130.3862 1135.91 1136.29 33.70
1196 130.4612 1100.78 1136.79 33.18
1197 130.5362 1156.64 1137.37 34.01
1198 130.6112 1183.77 1138.11 34.41
1199 130.6862 1169.37 1139.75 34.20
1200 130.7612 1155.26 1141.48 33.99
1201 130.8362 1157.21 1143.29 34.02
1202 130.9112 1210.39 1145.21 34.79
1203 130.9862 1177.03 1147.26 34.31
1204 131.0612 1187.54 1149.47 34.46
1205 131.1362 1216.82 1151.89 34.88
1206 131.2112 1191.94 1154.59 34.52
1207 131.2862 1168.19 1157.70 34.18
1208 131.3612 1129.77 1161.39 33.61
1209 131.4362 1145.01 1165.93 33.84
1210 131.5112 1194.56 1171.71 34.56
1211 131.5862 1179.25 1179.30 34.34
1212 131.6612 1168.79 1189.48 34.19
1213 131.7362 1160.39 1203.33 34.06
1214 131.8112 1183.06 1222.19 34.40
1215 131.8862 1231.73 1247.70 35.10
1216 131.9612 1231.26 1281.84 35.09
1217 132.0362 1270.15 1326.58 35.64
1218 132.1112 1314.27 1383.87 36.25
1219 132.1862 1349.54 1455.26 36.74
1220 132.2612 1505.94 1541.55 38.81
1221 132.3362 1548.45 1642.49 39.35
1222 132.4112 1646.52 1756.52 40.58
1223 132.4862 1807.20 1880.57 42.51
1224 132.5612 1987.64 2010.30 44.58
1225 132.6362 2089.80 2140.11 45.71
1226 132.7112 2267.28 2264.01 47.62
1227 132.7862 2369.89 2375.97 48.68
1228 132.8612 2438.05 2470.64 49.38
1229 132.9362 2456.44 2543.88 49.56
1230 133.0112 2457.85 2593.13 49.58
1231 133.0862 2516.09 2617.62 50.16
1232 133.1612 2628.17 2618.06 51.27
1233 133.2362 2616.80 2596.09 51.15
1234 133.3112 2686.90 2553.42 51.84
1235 133.3862 2644.39 2491.59 51.42
1236 133.4612 2571.41 2411.63 50.71
1237 133.5362 2463.80 2314.77 49.64
1238 133.6112 2328.00 2203.13 48.25
1239 133.6862 2172.74 2080.25 46.61
1240 133.7612 2027.18 1951.40 45.02
1241 133.8362 1816.05 1822.77 42.62
1242 133.9112 1725.80 1700.68 41.54
1243 133.9862 1657.31 1590.49 40.71
1244 134.0612 1544.28 1495.89 39.30
1245 134.1362 1386.09 1418.66 37.23
1246 134.2112 1404.54 1358.67 37.48
1247 134.2862 1369.43 1314.37 37.01
1248 134.3612 1362.16 1283.26 36.91
1249 134.4362 1328.66 1262.45 36.45
1250 134.5112 1298.99 1249.11 36.04
1251 134.5862 1267.44 1240.83 35.60
1252 134.6612 1293.76 1235.73 35.97
1253 134.7362 1268.30 1232.54 35.61
1254 134.8112 1291.70 1230.49 35.94
1255 134.8862 1281.42 1229.21 35.80
1256 134.9612 1259.69 1228.57 35.49
1257 135.0362 1232.46 1228.59 35.11
1258 135.1112 1234.85 1229.34 35.14
1259 135.1862 1216.99 1230.90 34.89
1260 135.2612 1215.95 1233.32 34.87
1261 135.3362 1213.73 1236.59 34.84
1262 135.4112 1226.94 1241.09 35.03
1263 135.4862 1216.26 1246.45 34.87
1264 135.5612 1264.16 1252.35 35.56
1265 135.6362 1299.94 1258.58 36.05
1266 135.7112 1332.12 1264.87 36.50
1267 135.7862 1274.95 1270.91 35.71
1268 135.8612 1262.96 1276.39 35.54
1269 135.9362 1283.66 1281.01 35.83
1270 136.0112 1263.60 1284.49 35.55
1271 136.0862 1289.71 1286.68 35.91
1272 136.1612 1231.95 1287.52 35.10
1273 136.2362 1217.75 1287.10 34.90
1274 136.3112 1281.07 1285.67 35.79
1275 136.3862 1282.63 1283.60 35.81
1276 136.4612 1317.08 1281.38 36.29
1277 136.5362 1315.41 1279.56 36.27
1278 136.6112 1243.17 1278.70 35.26
1279 136.6862 1262.70 1279.36 35.53
1280 136.7612 1314.37 1282.05 36.25
1281 136.8362 1302.18 1288.02 36.09
1282 136.9112 1332.00 1296.96 36.50
1283 136.9862 1345.24 1309.33 36.68
1284 137.0612 1290.56 1325.64 35.92
1285 137.1362 1315.61 1346.43 36.27
1286 137.2112 1304.11 1372.34 36.11
1287 137.2862 1337.05 1403.99 36.57
1288 137.3612 1436.20 1442.07 37.90
1289 137.4362 1445.59 1487.17 38.02
1290 137.5112 1437.97 1539.72 37.92
1291 137.5862 1504.28 1599.92 38.79
1292 137.6612 1498.90 1667.57 38.72
1293 137.7362 1678.48 1741.90 40.97
1294 137.8112 1760.19 1821.53 41.95
1295 137.8862 1817.77 1904.28 42.64
1296 137.9612 1870.68 1987.35 43.25
1297 138.0362 2016.09 2067.19 44.90
1298 138.1112 1940.96 2139.79 44.06
1299 138.1862 2161.36 2200.92 46.49
1300 138.2612 2343.08 2246.43 48.41
1301 138.3362 2446.90 2272.70 49.47
1302 138.4112 2434.90 2277.07 49.34
1303 138.4862 2406.31 2258.14 49.05
1304 138.5612 2254.46 2216.12 47.48
1305 138.6362 2230.97 2153.04 47.23
1306 138.7112 2199.70 2072.61 46.90
1307 138.7862 1962.26 1979.93 44.30
1308 138.8612 1798.08 1880.88 42.40
1309 138.9362 1783.07 1781.47 42.23
1310 139.0112 1612.93 1687.08 40.16
1311 139.0862 1581.58 1601.93 39.77
1312 139.1612 1531.65 1528.83 39.14
1313 139.2362 1534.71 1469.14 39.18
1314 139.3112 1440.20 1422.92 37.95
1315 139.3862 1428.71 1389.18 37.80
1316 139.4612 1457.23 1366.28 38.17
1317 139.5362 1410.16 1352.17 37.55
1318 139.6112 1322.01 1344.81 36.36
loop_
_pd_proc_info_excluded_regions
'from 0.005 to 15.0: dipped inset'
'from 42.5 to 47.5: container reflection'
'from 64 to 67.75: container reflection'
'from 80.85 to 86.15: container reflection'
'from 98.7 to 103.3: container reflection'
'from 114.6 to 121.5: container reflection'
'from 139.5 to 141.9: container reflection'
loop_
_refln_index_h
_refln_index_k
_refln_index_l
_refln_F_squared_calc
_refln_F_squared_meas
_refln_F_squared_sigma
_refln_include_status
_refln_d_spacing
1 0 1 371.39 361.05 7.71 o 3.983725
1 1 0 57.43 52.29 2.85 o 3.647860
1 1 1 152.85 132.60 3.57 o 3.153049
1 0 2 399.62 418.81 9.56 o 2.679096
2 0 0 1045.40 1087.74 24.26 o 2.579426
2 1 1 73.48 74.48 2.71 o 2.165182
2 -1 1 73.48 74.48 2.71 o 2.165182
2 0 2 7.32 10.40 3.49 < 1.991863
1 0 3 7.94 3.59 3.11 < 1.937065
2 1 2 188.72 189.30 5.07 o 1.858167
2 -1 2 188.72 189.30 5.07 o 1.858167
2 2 0 320.29 336.42 8.78 o 1.823930
1 1 3 396.02 419.14 10.50 o 1.813442
2 2 1 25.98 35.95 5.74 o 1.751333
3 -1 1 242.72 251.97 6.09 o 1.578807
3 1 1 242.72 251.97 6.09 o 1.578807
2 2 2 144.93 147.95 3.48 o 1.576524
0 0 4 1808.63 1862.87 46.08 o 1.567494
2 -1 3 17.52 16.78 2.12 o 1.548932
2 1 3 17.52 16.78 2.12 o 1.548932
3 0 2 1594.39 1603.65 34.95 o 1.507694
1 0 4 10.59 10.81 0.25 o 1.499790
3 -1 2 132.91 127.30 4.53 o 1.447158
3 1 2 132.91 127.30 4.53 o 1.447158
1 1 4 37.78 38.23 1.59 o 1.440164
3 2 0 152.02 170.55 8.24 o 1.430808
3 -2 1 160.63 151.00 5.26 o 1.394948
3 2 1 160.63 151.00 5.26 o 1.394948
3 -2 2 675.92 669.98 14.86 o 1.301649
3 2 2 675.92 669.98 14.86 o 1.301649
2 -1 4 287.96 284.47 6.46 o 1.296552
2 1 4 287.96 284.47 6.46 o 1.296552
4 0 0 26.68 26.63 0.61 o 1.289713
3 1 3 703.72 695.15 15.75 o 1.285989
3 -1 3 703.72 695.15 15.75 o 1.285989
4 0 1 75.46 59.25 6.35 o 1.263265
4 1 0 615.01 573.34 15.95 o 1.251205
4 1 1 363.74 363.74 9.42 o 1.227013
4 -1 1 363.74 363.74 9.42 o 1.227013
1 0 5 879.84 866.60 19.89 o 1.218513
3 3 0 1079.15 1054.01 24.32 o 1.215953
3 3 1 272.04 268.52 9.25 o 1.193713
4 0 2 39.80 38.79 1.28 o 1.192725
2 2 4 211.08 197.20 7.36 o 1.188800
1 1 5 5.68 5.20 0.25 o 1.185882
4 2 1 142.54 146.10 4.57 o 1.134513
4 -2 1 142.54 146.10 4.57 o 1.134513
3 3 2 0.40 0.40 0.01 o 1.133666
3 1 4 211.70 206.30 6.07 o 1.130293
3 -1 4 211.70 206.30 6.07 o 1.130293
2 0 5 52.48 50.93 1.65 o 1.127784
2 -1 5 283.40 284.79 7.72 o 1.101764
2 1 5 283.40 284.79 7.72 o 1.101764
4 0 3 414.21 404.82 11.57 o 1.097558
4 2 2 241.21 240.22 7.81 o 1.082591
4 -2 2 241.21 240.22 7.81 o 1.082591
4 1 3 213.02 219.67 7.56 o 1.073531
4 -1 3 213.02 219.67 7.56 o 1.073531
4 3 0 108.28 61.25 43.24 < 1.031770
1 0 6 166.14 135.87 8.80 o 1.024194
5 0 1 45.18 45.71 1.30 o 1.018078
4 3 1 313.48 317.12 9.00 o 1.018078
4 -3 1 313.48 317.12 9.00 o 1.018078
3 0 5 219.72 222.37 6.50 o 1.013207
5 1 0 147.93 154.01 4.52 o 1.011734
4 2 3 160.46 164.74 4.97 o 1.009933
4 -2 3 160.46 164.74 4.97 o 1.009933
1 1 6 247.90 222.08 10.85 o 1.004588
5 1 1 4.89 3.81 0.81 o 0.998814
5 -1 1 4.89 3.81 0.81 o 0.998814
4 0 4 18.13 21.53 5.21 o 0.995931
3 1 5 7.24 8.94 2.28 o 0.994213
3 -1 5 7.24 8.94 2.28 o 0.994213
5 0 2 636.54 632.53 15.30 o 0.980057
4 3 2 9.64 9.57 0.23 o 0.980057
4 -3 2 9.64 9.57 0.23 o 0.980057
4 1 4 346.27 350.70 8.42 o 0.977876
4 -1 4 346.27 350.70 8.42 o 0.977876
2 0 6 37.33 31.22 7.19 o 0.968532
5 1 2 36.17 35.27 1.01 o 0.962836
5 -1 2 36.17 35.27 1.01 o 0.962836
3 3 4 714.08 693.45 19.25 o 0.960768
