#------------------------------------------------------------------------------
#$Date: 2020-02-12 01:26:17 +0200 (Wed, 12 Feb 2020) $
#$Revision: 248045 $
#$URL: file:///home/coder/svn-repositories/cod/cif/4/00/34/4003473.cif $
#------------------------------------------------------------------------------
#
# This file is available in the Crystallography Open Database (COD),
# http://www.crystallography.net/
#
# All data on this site have been placed in the public domain by the
# contributors.
#
data_4003473
loop_
_publ_author_name
'Han, Yifeng'
'Zhu, Chuanhui'
'Peng, Yi'
'Li, Shufang'
'Wu, MeiXia'
'Zhao, Shuang'
'Deng, Zheng'
'Jin, Changqing'
'Du, Wei'
'Walker, David'
'Li, Man-Rong'
_publ_section_title
;
 Above-Room-Temperature LiNbO3-Type Polar Magnet Stabilized by Chemical
 and Physical Pressure
;
_journal_name_full               'Chemistry of Materials'
_journal_paper_doi               10.1021/acs.chemmater.9b05051
_journal_year                    2020
_chemical_formula_sum            'Fe0.28 Li0.43 Mn0.57 Nb0.72 O3'
_chemical_formula_weight         164.9
_chemical_name_mineral           Li0.43Mn0.57Fe0.28Nb0.72O3
_space_group_IT_number           161
_space_group_name_Hall           'R 3 -2"c'
_space_group_name_H-M_alt        'R 3 c :H'
_symmetry_cell_setting           hexagonal
_symmetry_space_group_name_H-M   'R 3 c :H'
_audit_update_record
;
2019-11-29 deposited with the CCDC.	2019-12-05 downloaded from the CCDC.
;
_cell_angle_alpha                90
_cell_angle_beta                 90
_cell_angle_gamma                120
_cell_formula_units_Z            6
_cell_length_a                   5.23421(3)
_cell_length_b                   5.23421(3)
_cell_length_c                   13.9150(1)
_cell_measurement_temperature    298
_cell_measurement_theta_max      53
_cell_measurement_theta_min      1
_cell_volume                     330.154(4)
_diffrn_ambient_temperature      298
_diffrn_measurement_device_type  'Shanghai Synchrotron Radiation Facility'
_diffrn_radiation_type           Synchrotron
_diffrn_radiation_wavelength     0.6900
_exptl_crystal_description       powder
_cod_data_source_file            cm9b05051_si_005.cif
_cod_data_source_block           LNOMFNO4
_cod_original_cell_volume        330.156(5)
_cod_original_sg_symbol_H-M      R3c
_cod_original_formula_sum        'Li0.43 Mn0.57 Fe0.28 Nb0.72 O3 '
_cod_database_code               4003473
_ccdc_publ_extra_info
;
Reason for no structure factor data deposited: 
powder
;
loop_
_symmetry_equiv_pos_as_xyz
'x, y, z '
'-x+y, y, z+1/2 '
'-y, -x, z+1/2 '
'-y, x-y, z '
'-x+y, -x, z '
'x, x-y, z+1/2 '
'x-1/3, y+1/3, z+1/3 '
'-x+y-1/3, y+1/3, z-1/6 '
'-y-1/3, -x+1/3, z-1/6 '
'-y-1/3, x-y+1/3, z+1/3 '
'-x+y-1/3, -x+1/3, z+1/3 '
'x-1/3, x-y+1/3, z-1/6 '
'x+1/3, y-1/3, z-1/3 '
'-x+y+1/3, y-1/3, z+1/6 '
'-y+1/3, -x-1/3, z+1/6 '
'-y+1/3, x-y-1/3, z-1/3 '
'-x+y+1/3, -x-1/3, z-1/3 '
'x+1/3, x-y-1/3, z+1/6 '
loop_
_atom_site_label
_atom_site_type_symbol
_atom_site_symmetry_multiplicity
_atom_site_fract_x
_atom_site_fract_y
_atom_site_fract_z
_atom_site_occupancy
_atom_site_B_iso_or_equiv
Mn1 Mn 6 0 0 0.21703(7) 0.57 0.87(7)
Li1 Li 6 0 0 0.21703(7) 0.43 0.87(7)
Nb1 Nb 6 0 0 0 0.71 0.95(2)
Fe1 Fe 6 0 0 0 0.29 0.95(2)
O1 O 18 0.0301(7) 0.3131(6) 0.0970(5) 1 0.85(3)
loop_
_atom_type_symbol
_atom_type_oxidation_number
Li1+ 1
Mn2+ 2
Fe3+ 3
Nb5+ 5
O2- -2
loop_
_geom_angle_atom_site_label_1
_geom_angle_atom_site_label_2
_geom_angle_atom_site_label_3
_geom_angle
O1 Mn1 O1 72.6(1)
O1 Mn1 O1 80.3(1)
O1 Mn1 O1 89.0(1)
O1 Mn1 O1 110.5(1)
O1 Mn1 O1 150.8(1)
O1 Fe1 O1 81.9(1)
O1 Fe1 O1 87.8(1)
O1 Fe1 O1 90.8(1)
O1 Fe1 O1 98.2(1)
O1 Fe1 O1 168.2(1)
loop_
_geom_bond_atom_site_label_1
_geom_bond_atom_site_label_2
_geom_bond_distance
Li1 O1 2.289(5)
Fe1 O1 2.067(4)
