#------------------------------------------------------------------------------
#$Date: 2019-10-29 23:41:55 +0200 (Tue, 29 Oct 2019) $
#$Revision: 220473 $
#$URL: file:///home/coder/svn-repositories/cod/cif/4/00/30/4003054.cif $
#------------------------------------------------------------------------------
#
# This file is available in the Crystallography Open Database (COD),
# http://www.crystallography.net/
#
# All data on this site have been placed in the public domain by the
# contributors.
#
data_4003054
loop_
_publ_author_name
'Laurita, Geneva'
'Hickox-Young, Daniel'
'Husremovic, Samra'
'Li, Jun'
'Sleight, Arthur W.'
'Macaluso, Robin'
'Rondinelli, James M.'
'Subramanian, Mas A.'
_publ_section_title
;
 Covalency-driven Structural Evolution in the Polar Pyrochlore Series
 Cd2Nb2O7--xSx
;
_journal_issue                   18
_journal_name_full               'Chemistry of Materials'
_journal_page_first              7626
_journal_paper_doi               10.1021/acs.chemmater.9b02466
_journal_volume                  31
_journal_year                    2019
_chemical_formula_moiety         'Cd Nb O'
_chemical_formula_sum            'Cd0.98 Nb O3.45'
_chemical_formula_weight         258.05
_chemical_name_mineral           Cd2Nb2O7
_space_group_IT_number           227
_space_group_name_Hall           '-F 4vw 2vw 3'
_space_group_name_H-M_alt        'F d -3 m :2'
_symmetry_cell_setting           cubic
_symmetry_Int_Tables_number      227
_symmetry_space_group_name_Hall  '-F 4vw 2vw 3'
_symmetry_space_group_name_H-M   'F d -3 m :2'
_cell_angle_alpha                90
_cell_angle_beta                 90
_cell_angle_gamma                90
_cell_formula_units_Z            16
_cell_length_a                   10.373405(2)
_cell_length_b                   10.373405(2)
_cell_length_c                   10.373405(2)
_cell_measurement_temperature    340
_cell_volume                     1116.2565(4)
_computing_structure_refinement  'GSAS EXPGUI'
_diffrn_ambient_temperature      340
_diffrn_measurement_device_type  'APS, Beamline 11-bm'
_diffrn_radiation_wavelength     0.4137810
_diffrn_source                   synchrotron
_pd_instr_location               'Argonne National Laboratory'
_pd_proc_ls_prof_R_factor        0.0936
_pd_proc_ls_prof_wR_expected     0.1093
_pd_proc_ls_prof_wR_factor       0.1115
_pd_spec_mounting
'polycrystalline powder in 0.8 mm dia. kapton capillary'
_refine_ls_goodness_of_fit_all   1.02
_cod_data_source_file            cm9b02466_si_003.cif
_cod_data_source_block           Cd2Nb2O7_340K
_cod_depositor_comments
;
The following automatic conversions were performed:

'_geom_bond_publ_flag' value 'N' changed to 'n' according to
/home/data/users/saulius/crontab/automatic-downloads/current/ACS/lib/dictionaries/cif_core.dic
dictionary named 'cif_core.dic' version 2.4.2 from 2011-04-26 (22
times).

'_geom_angle_publ_flag' value 'N' changed to 'n' according to
/home/data/users/saulius/crontab/automatic-downloads/current/ACS/lib/dictionaries/cif_core.dic
dictionary named 'cif_core.dic' version 2.4.2 from 2011-04-26 (23
times).

Automatic conversion script
Id: cif_fix_values 4973 2017-02-22 13:04:09Z antanas 
;
_cod_original_cell_volume        1116.2560(10)
_cod_original_sg_symbol_H-M      Fd-3m
_cod_database_code               4003054
loop_
_symmetry_equiv_pos_site_id
_symmetry_equiv_pos_as_xyz
1 +x,+y,+z
2 +z,+x,+y
3 +y,+z,+x
4 +x+1/4,+y+1/4,-z
5 -z,+x+1/4,+y+1/4
6 +y+1/4,-z,+x+1/4
7 -z+1/4,+x+1/2,-y+3/4
8 -y+3/4,-z+1/4,+x+1/2
9 +y+1/2,-z+1/4,-x+3/4
10 -x+3/4,+y+1/2,-z+1/4
11 -z+1/4,-x+3/4,+y+1/2
12 +x+1/2,-y+3/4,-z+1/4
13 +y,+x,+z
14 +z,+y,+x
15 +x,+z,+y
16 +y+1/4,+x+1/4,-z
17 -z,+y+1/4,+x+1/4
18 +x+1/4,-z,+y+1/4
19 -z+1/4,+y+1/2,-x+3/4
20 -x+3/4,-z+1/4,+y+1/2
21 +x+1/2,-z+1/4,-y+3/4
22 -y+3/4,+x+1/2,-z+1/4
23 -z+1/4,-y+3/4,+x+1/2
24 +y+1/2,-x+3/4,-z+1/4
-1 -x,-y,-z
-2 -z,-x,-y
-3 -y,-z,-x
-4 -x+3/4,-y+3/4,+z
-5 +z,-x+3/4,-y+3/4
-6 -y+3/4,+z,-x+3/4
-7 +z+3/4,-x+1/2,+y+1/4
-8 +y+1/4,+z+3/4,-x+1/2
-9 -y+1/2,+z+3/4,+x+1/4
-10 +x+1/4,-y+1/2,+z+3/4
-11 +z+3/4,+x+1/4,-y+1/2
-12 -x+1/2,+y+1/4,+z+3/4
-13 -y,-x,-z
-14 -z,-y,-x
-15 -x,-z,-y
-16 -y+3/4,-x+3/4,+z
-17 +z,-y+3/4,-x+3/4
-18 -x+3/4,+z,-y+3/4
-19 +z+3/4,-y+1/2,+x+1/4
-20 +x+1/4,+z+3/4,-y+1/2
-21 -x+1/2,+z+3/4,+y+1/4
-22 +y+1/4,-x+1/2,+z+3/4
-23 +z+3/4,+y+1/4,-x+1/2
-24 -y+1/2,+x+1/4,+z+3/4
101 +x,+y+1/2,+z+1/2
102 +z,+x+1/2,+y+1/2
103 +y,+z+1/2,+x+1/2
104 +x+1/4,+y+3/4,-z+1/2
105 -z,+x+3/4,+y+3/4
106 +y+1/4,-z+1/2,+x+3/4
107 -z+1/4,+x,-y+1/4
108 -y+3/4,-z+3/4,+x
109 +y+1/2,-z+3/4,-x+1/4
110 -x+3/4,+y,-z+3/4
111 -z+1/4,-x+1/4,+y
112 +x+1/2,-y+1/4,-z+3/4
113 +y,+x+1/2,+z+1/2
114 +z,+y+1/2,+x+1/2
115 +x,+z+1/2,+y+1/2
116 +y+1/4,+x+3/4,-z+1/2
117 -z,+y+3/4,+x+3/4
118 +x+1/4,-z+1/2,+y+3/4
119 -z+1/4,+y,-x+1/4
120 -x+3/4,-z+3/4,+y
121 +x+1/2,-z+3/4,-y+1/4
122 -y+3/4,+x,-z+3/4
123 -z+1/4,-y+1/4,+x
124 +y+1/2,-x+1/4,-z+3/4
-101 -x,-y+1/2,-z+1/2
-102 -z,-x+1/2,-y+1/2
-103 -y,-z+1/2,-x+1/2
-104 -x+3/4,-y+1/4,+z+1/2
-105 +z,-x+1/4,-y+1/4
-106 -y+3/4,+z+1/2,-x+1/4
-107 +z+3/4,-x,+y+3/4
-108 +y+1/4,+z+1/4,-x
-109 -y+1/2,+z+1/4,+x+3/4
-110 +x+1/4,-y,+z+1/4
-111 +z+3/4,+x+3/4,-y
-112 -x+1/2,+y+3/4,+z+1/4
-113 -y,-x+1/2,-z+1/2
-114 -z,-y+1/2,-x+1/2
-115 -x,-z+1/2,-y+1/2
-116 -y+3/4,-x+1/4,+z+1/2
-117 +z,-y+1/4,-x+1/4
-118 -x+3/4,+z+1/2,-y+1/4
-119 +z+3/4,-y,+x+3/4
-120 +x+1/4,+z+1/4,-y
-121 -x+1/2,+z+1/4,+y+3/4
-122 +y+1/4,-x,+z+1/4
-123 +z+3/4,+y+3/4,-x
-124 -y+1/2,+x+3/4,+z+1/4
201 +x+1/2,+y,+z+1/2
202 +z+1/2,+x,+y+1/2
203 +y+1/2,+z,+x+1/2
204 +x+3/4,+y+1/4,-z+1/2
205 -z+1/2,+x+1/4,+y+3/4
206 +y+3/4,-z,+x+3/4
207 -z+3/4,+x+1/2,-y+1/4
208 -y+1/4,-z+1/4,+x
209 +y,-z+1/4,-x+1/4
210 -x+1/4,+y+1/2,-z+3/4
211 -z+3/4,-x+3/4,+y
212 +x,-y+3/4,-z+3/4
213 +y+1/2,+x,+z+1/2
214 +z+1/2,+y,+x+1/2
215 +x+1/2,+z,+y+1/2
216 +y+3/4,+x+1/4,-z+1/2
217 -z+1/2,+y+1/4,+x+3/4
218 +x+3/4,-z,+y+3/4
219 -z+3/4,+y+1/2,-x+1/4
220 -x+1/4,-z+1/4,+y
221 +x,-z+1/4,-y+1/4
222 -y+1/4,+x+1/2,-z+3/4
223 -z+3/4,-y+3/4,+x
224 +y,-x+3/4,-z+3/4
-201 -x+1/2,-y,-z+1/2
-202 -z+1/2,-x,-y+1/2
-203 -y+1/2,-z,-x+1/2
-204 -x+1/4,-y+3/4,+z+1/2
-205 +z+1/2,-x+3/4,-y+1/4
-206 -y+1/4,+z,-x+1/4
-207 +z+1/4,-x+1/2,+y+3/4
-208 +y+3/4,+z+3/4,-x
-209 -y,+z+3/4,+x+3/4
-210 +x+3/4,-y+1/2,+z+1/4
-211 +z+1/4,+x+1/4,-y
-212 -x,+y+1/4,+z+1/4
-213 -y+1/2,-x,-z+1/2
-214 -z+1/2,-y,-x+1/2
-215 -x+1/2,-z,-y+1/2
-216 -y+1/4,-x+3/4,+z+1/2
-217 +z+1/2,-y+3/4,-x+1/4
-218 -x+1/4,+z,-y+1/4
-219 +z+1/4,-y+1/2,+x+3/4
-220 +x+3/4,+z+3/4,-y
-221 -x,+z+3/4,+y+3/4
-222 +y+3/4,-x+1/2,+z+1/4
-223 +z+1/4,+y+1/4,-x
-224 -y,+x+1/4,+z+1/4
301 +x+1/2,+y+1/2,+z
302 +z+1/2,+x+1/2,+y
303 +y+1/2,+z+1/2,+x
304 +x+3/4,+y+3/4,-z
305 -z+1/2,+x+3/4,+y+1/4
306 +y+3/4,-z+1/2,+x+1/4
307 -z+3/4,+x,-y+3/4
308 -y+1/4,-z+3/4,+x+1/2
309 +y,-z+3/4,-x+3/4
310 -x+1/4,+y,-z+1/4
311 -z+3/4,-x+1/4,+y+1/2
312 +x,-y+1/4,-z+1/4
313 +y+1/2,+x+1/2,+z
314 +z+1/2,+y+1/2,+x
315 +x+1/2,+z+1/2,+y
316 +y+3/4,+x+3/4,-z
317 -z+1/2,+y+3/4,+x+1/4
318 +x+3/4,-z+1/2,+y+1/4
319 -z+3/4,+y,-x+3/4
320 -x+1/4,-z+3/4,+y+1/2
321 +x,-z+3/4,-y+3/4
322 -y+1/4,+x,-z+1/4
323 -z+3/4,-y+1/4,+x+1/2
324 +y,-x+1/4,-z+1/4
-301 -x+1/2,-y+1/2,-z
-302 -z+1/2,-x+1/2,-y
-303 -y+1/2,-z+1/2,-x
-304 -x+1/4,-y+1/4,+z
-305 +z+1/2,-x+1/4,-y+3/4
-306 -y+1/4,+z+1/2,-x+3/4
-307 +z+1/4,-x,+y+1/4
-308 +y+3/4,+z+1/4,-x+1/2
-309 -y,+z+1/4,+x+1/4
-310 +x+3/4,-y,+z+3/4
-311 +z+1/4,+x+3/4,-y+1/2
-312 -x,+y+3/4,+z+3/4
-313 -y+1/2,-x+1/2,-z
-314 -z+1/2,-y+1/2,-x
-315 -x+1/2,-z+1/2,-y
-316 -y+1/4,-x+1/4,+z
-317 +z+1/2,-y+1/4,-x+3/4
-318 -x+1/4,+z+1/2,-y+3/4
-319 +z+1/4,-y,+x+1/4
-320 +x+3/4,+z+1/4,-y+1/2
-321 -x,+z+1/4,+y+1/4
-322 +y+3/4,-x,+z+3/4
-323 +z+1/4,+y+3/4,-x+1/2
-324 -y,+x+3/4,+z+3/4
loop_
_atom_site_type_symbol
_atom_site_label
_atom_site_fract_x
_atom_site_fract_y
_atom_site_fract_z
_atom_site_occupancy
_atom_site_thermal_displace_type
_atom_site_U_iso_or_equiv
_atom_site_symmetry_multiplicity
Cd Cd 0.5 0.5 0.5 0.9785(26) Uiso 0.0126(4) 16
Nb Nb 0.0 0.0 0.0 1.0 Uiso 0.00781(11) 16
O O1 0.375 0.375 0.375 0.894(9) Uiso 0.0074(14) 8
O O2 0.31722(16) 0.125 0.125 1.0 Uiso 0.01001(33) 48
loop_
_geom_angle_atom_site_label_1
_geom_angle_atom_site_label_2
_geom_angle_atom_site_label_3
_geom_angle
_geom_angle_site_symmetry_1
_geom_angle_site_symmetry_3
_geom_angle_publ_flag
O1 Cd1 O1 180.0 1_555 -1_555 n
O2 Nb1 O2 92.00(6) 101_555 108_443 n
O2 Nb1 O2 92.00(6) 101_555 122_434 n
O2 Nb1 O2 180.0 101_555 -101_544 n
O2 Nb1 O2 88.00(6) 101_555 -108_545 n
O2 Nb1 O2 88.00(6) 101_555 -122_554 n
O2 Nb1 O2 92.00(6) 108_443 122_434 n
O2 Nb1 O2 88.00(6) 108_443 -101_544 n
O2 Nb1 O2 180.0 108_443 -108_545 n
O2 Nb1 O2 88.00(6) 108_443 -122_554 n
O2 Nb1 O2 88.00(6) 122_434 -101_544 n
O2 Nb1 O2 88.00(6) 122_434 -108_545 n
O2 Nb1 O2 180.0 122_434 -122_554 n
O2 Nb1 O2 92.00(6) -101_544 -108_545 n
O2 Nb1 O2 92.00(6) -101_544 -122_554 n
O2 Nb1 O2 92.00(6) -108_545 -122_554 n
Cd1 O1 Cd1 109.4712 1_555 4_555 n
Cd1 O1 Cd1 109.4712 1_555 5_555 n
Cd1 O1 Cd1 109.4712 1_555 6_555 n
Cd1 O1 Cd1 109.4712 4_555 5_555 n
Cd1 O1 Cd1 109.4712 4_555 6_555 n
Cd1 O1 Cd1 109.4712 5_555 6_555 n
Nb1 O2 Nb1 138.21(9) -5_555 101_544 n
loop_
_geom_bond_atom_site_label_1
_geom_bond_atom_site_label_2
_geom_bond_distance
_geom_bond_site_symmetry_2
_geom_bond_publ_flag
Cd1 O1 2.24591 1_555 n
Cd1 O1 2.24591 -1_555 n
Cd1 O2 2.6358(12) 105_544 n
Cd1 O2 2.6358(12) 111_555 n
Cd1 O2 2.6358(12) 117_544 n
Cd1 O2 2.6358(12) 119_555 n
Cd1 O2 2.6358(12) 218_454 n
Cd1 O2 2.6358(12) 220_555 n
Nb1 O2 1.9629(6) 101_555 n
Nb1 O2 1.9629(6) 108_555 n
Nb1 O2 1.9629(6) 122_555 n
Nb1 O2 1.9629(6) -101_644 n
Nb1 O2 1.9629(6) -108_545 n
Nb1 O2 1.9629(6) -122_554 n
O1 Cd1 2.24591 1_555 n
O1 Cd1 2.24591 4_555 n
O1 Cd1 2.24591 5_555 n
O1 Cd1 2.24591 6_555 n
O2 Cd1 2.6358(12) 4_555 n
O2 Cd1 2.6358(12) 6_555 n
O2 Nb1 1.9629(6) -5_555 n
O2 Nb1 1.9629(6) 101_544 n
