#------------------------------------------------------------------------------
#$Date: 2016-02-16 22:30:59 +0200 (Tue, 16 Feb 2016) $
#$Revision: 176467 $
#$URL: svn://www.crystallography.net/cod/cif/4/03/07/4030746.cif $
#------------------------------------------------------------------------------
#
# This file is available in the Crystallography Open Database (COD),
# http://www.crystallography.net/
#
# All data on this site have been placed in the public domain by the
# contributors.
#
data_4030746
loop_
_publ_author_name
'Chen, Y F'
'Rabu, P'
'Pourroy, G'
'Vilminot, S'
_publ_section_title
;
 Phase evolution with thermal treatment in the system cordierite-CuO
;
_journal_name_full
;
European Journal of Solid State Inorganic Chemistry
;
_journal_page_first              1065
_journal_page_last               1076
_journal_volume                  32
_journal_year                    1995
_chemical_formula_sum            'Al4 Cu0.09 Mg1.91 O18 Si5'
_chemical_formula_weight         588.484
_space_group_IT_number           192
_symmetry_cell_setting           hexagonal
_symmetry_Int_Tables_number      192
_symmetry_space_group_name_Hall  '-P 6 2c'
_symmetry_space_group_name_H-M   'P 6/m c c'
_cell_angle_alpha                90
_cell_angle_beta                 90
_cell_angle_gamma                120
_cell_formula_units_Z            2
_cell_length_a                   9.7589(6)
_cell_length_b                   9.7589(6)
_cell_length_c                   9.3256(3)
_cell_volume                     769.15(7)
_diffrn_ambient_temperature      293
_diffrn_radiation_probe          x-ray
_diffrn_radiation_type           CoK\a
_diffrn_radiation_wavelength     1.7889
_exptl_absorpt_coefficient_mu    12.848
_exptl_crystal_density_diffrn    2.541
_exptl_crystal_F_000             583
_pd_proc_ls_prof_R_factor        0.161
_pd_proc_ls_prof_wR_expected     0.069
_pd_proc_ls_prof_wR_factor       0.206
_refine_ls_number_parameters     6
_refine_ls_number_reflns         118
_refine_ls_R_I_factor            0.0439
_cod_data_source_file            EJSSIC-1995-32-1065-1076-3.cif
_cod_data_source_block           1070
_cod_depositor_comments
;
sample prepared at 1343 K
Rietveld refinements, Fullprof software
;
_cod_original_cell_volume        769.15(11)
_cod_original_formula_sum        'Al4 Cu.09 Mg1.91 O18 Si5'
_cod_database_code               4030746
loop_
_symmetry_equiv_pos_site_id
_symmetry_equiv_pos_as_xyz
1 x,y,z
2 x-y,x,z
3 -y,x-y,z
4 -x,-y,z
5 -x+y,-x,z
6 y,-x+y,z
7 -y,-x,1/2-z
8 x-y,-y,1/2-z
9 x,x-y,1/2-z
10 y,x,1/2-z
11 -x+y,y,1/2-z
12 -x,-x+y,1/2-z
13 -x,-y,-z
14 -x+y,-x,-z
15 y,-x+y,-z
16 x,y,-z
17 x-y,x,-z
18 -y,x-y,-z
19 y,x,1/2+z
20 -x+y,y,1/2+z
21 -x,-x+y,1/2+z
22 -y,-x,1/2+z
23 x-y,-y,1/2+z
24 x,x-y,1/2+z
loop_
_atom_site_label
_atom_site_type_symbol
_atom_site_thermal_displace_type
_atom_site_fract_x
_atom_site_fract_y
_atom_site_fract_z
_atom_site_occupancy
_atom_site_U_iso_or_equiv
Cu1 Cu Uiso 0.66670 0.33330 0.25000 0.045(10) 0.011(3)
Si2 Si Uiso 0.3714(4) 0.2648(5) 0.00000 0.667 0.0103(15)
Al1 Al Uiso 0.50000 0.50000 0.25000 0.667 0.0085(16)
Mg1 Mg Uiso 0.66670 0.33330 0.25000 0.955(10) 0.011(3)
O1 O Uiso 0.4874(5) 0.3511(5) 0.1451(4) 1.000 0.0120(18)
O2 O Uiso 0.2333(9) 0.3100(6) 0.00000 1.000 0.025(2)
Si1 Si Uiso 0.50000 0.50000 0.25000 0.333 0.0085(16)
Al2 Al Uiso 0.3714(4) 0.2648(5) 0.00000 0.333 0.0103(15)
loop_
_atom_type_symbol
_atom_type_description
_atom_type_scat_dispersion_real
_atom_type_scat_dispersion_imag
_atom_type_scat_source
Al Al 0.2540 0.3277 'S.Brennan & P.L.Cowan (1992).Rev.Sci.Instr.,63,650'
Mg Mg 0.2097 0.2377 'S.Brennan & P.L.Cowan (1992).Rev.Sci.Instr.,63,650'
O O 0.0635 0.0442 'S.Brennan & P.L.Cowan (1992).Rev.Sci.Instr.,63,650'
Si Si 0.3006 0.4396 'S.Brennan & P.L.Cowan (1992).Rev.Sci.Instr.,63,650'
loop_
_geom_angle_atom_site_label_1
_geom_angle_atom_site_label_2
_geom_angle_atom_site_label_3
_geom_angle
_geom_angle_site_symmetry_1
_geom_angle_site_symmetry_3
_geom_angle_publ_flag
O1 Cu1 O1 99.79(19) . 3_655 yes
O1 Cu1 O1 99.8(2) . 5_665 yes
O1 Cu1 O1 74.04(18) . 7_665 yes
O1 Cu1 O1 86.83(19) . 9_555 yes
O1 Cu1 O1 171.73(16) . 11_655 yes
O1 Cu1 O1 99.8(2) 3_655 5_665 yes
O1 Cu1 O1 171.7(2) 3_655 7_665 yes
O1 Cu1 O1 74.1(2) 3_655 9_555 yes
O1 Cu1 O1 86.9(2) 3_655 11_655 yes
O1 Cu1 O1 86.83(19) 5_665 7_665 yes
O1 Cu1 O1 171.8(2) 5_665 9_555 yes
O1 Cu1 O1 74.1(2) 5_665 11_655 yes
O1 Cu1 O1 99.78(19) 7_665 9_555 yes
O1 Cu1 O1 99.79(19) 7_665 11_655 yes
O1 Cu1 O1 99.81(19) 9_555 11_655 yes
O1 Si1 O1 95.0(2) . 7_665 yes
O1 Si1 O1 124.9(2) . 10_555 yes
O1 Si1 O1 124.9(2) 4_665 7_665 yes
O1 Si1 O1 95.0(2) 4_665 10_555 yes
O1 Si1 O1 110.0(2) 7_665 10_555 yes
O1 Si1 O1 109.95(19) . 4_665 yes
O1 Si2 O2 107.8(3) 16_555 . yes
O1 Si2 O2 109.9(3) . 6_555 yes
O1 Si2 O2 109.9(3) 16_555 6_555 yes
O1 Si2 O2 107.8(3) . . yes
O1 Si2 O1 106.1(3) . 16_555 yes
O2 Si2 O2 115.0(4) . 6_555 yes
O1 Al1 O1 95.0(2) . 7_665 yes
O1 Al1 O1 109.95(19) . 4_665 yes
O1 Al1 O1 95.0(2) 4_665 10_555 yes
O1 Al1 O1 124.9(2) . 10_555 yes
O1 Al1 O1 124.9(2) 4_665 7_665 yes
O1 Al1 O1 110.0(2) 7_665 10_555 yes
O1 Al2 O2 107.8(3) . . yes
O1 Al2 O2 109.9(3) 16_555 6_555 yes
O1 Al2 O1 106.1(3) . 16_555 yes
O2 Al2 O2 115.0(4) . 6_555 yes
O1 Al2 O2 109.9(3) . 6_555 yes
O1 Al2 O2 107.8(3) 16_555 . yes
O1 Mg1 O1 99.8(2) . 5_665 yes
O1 Mg1 O1 74.04(18) . 7_665 yes
O1 Mg1 O1 99.79(19) . 3_655 yes
O1 Mg1 O1 74.1(2) 3_655 9_555 yes
O1 Mg1 O1 86.9(2) 3_655 11_655 yes
O1 Mg1 O1 86.83(19) 5_665 7_665 yes
O1 Mg1 O1 86.83(19) . 9_555 yes
O1 Mg1 O1 171.73(16) . 11_655 yes
O1 Mg1 O1 99.8(2) 3_655 5_665 yes
O1 Mg1 O1 171.7(2) 3_655 7_665 yes
O1 Mg1 O1 99.81(19) 9_555 11_655 yes
O1 Mg1 O1 74.1(2) 5_665 11_655 yes
O1 Mg1 O1 99.78(19) 7_665 9_555 yes
O1 Mg1 O1 171.8(2) 5_665 9_555 yes
O1 Mg1 O1 99.79(19) 7_665 11_655 yes
Si1 O1 Al2 128.9(4) . . yes
Si2 O1 Al1 128.9(4) . . yes
Si2 O2 Si2 175.0(4) . 2_555 yes
loop_
_geom_bond_atom_site_label_1
_geom_bond_atom_site_label_2
_geom_bond_distance
_geom_bond_site_symmetry_2
_geom_bond_publ_flag
Cu1 O1 2.086(5) . yes
Cu1 O1 2.086(6) 3_655 yes
Cu1 O1 2.086(5) 5_665 yes
Cu1 O1 2.086(4) 7_665 yes
Cu1 O1 2.086(6) 9_555 yes
Cu1 O1 2.086(7) 11_655 yes
Si1 O1 1.704(4) 4_665 yes
Si1 O1 1.704(5) 7_665 yes
Si1 O1 1.704(5) 10_555 yes
Si1 O1 1.704(4) . yes
Si2 O1 1.694(5) 16_555 yes
Si2 O1 1.694(5) . yes
Si2 O2 1.614(10) . yes
Si2 O2 1.621(10) 6_555 yes
Al1 O1 1.704(4) 4_665 yes
Al1 O1 1.704(5) 7_665 yes
Al1 O1 1.704(4) . yes
Al1 O1 1.704(5) 10_555 yes
Al2 O2 1.614(10) . yes
Al2 O2 1.621(10) 6_555 yes
Al2 O1 1.694(5) . yes
Al2 O1 1.694(5) 16_555 yes
Mg1 O1 2.086(6) 3_655 yes
Mg1 O1 2.086(5) 5_665 yes
Mg1 O1 2.086(5) . yes
Mg1 O1 2.086(6) 9_555 yes
Mg1 O1 2.086(7) 11_655 yes
Mg1 O1 2.086(4) 7_665 yes
loop_
_geom_torsion_atom_site_label_1
_geom_torsion_atom_site_label_2
_geom_torsion_atom_site_label_3
_geom_torsion_atom_site_label_4
_geom_torsion
_geom_torsion_site_symmetry_1
_geom_torsion_site_symmetry_3
_geom_torsion_publ_flag
O2 Si2 O1 Al1 -16.4(5) . . no
O2 Si2 O1 Mg1 168.6(3) . . no
O1 Si2 O1 Al1 98.9(4) 16_555 . no
O1 Si2 O1 Mg1 -76.2(4) 16_555 . no
O1 Al1 O1 Si2 -46.5(4) 4_665 . no
O1 Al1 O1 Mg1 130.0(2) 4_665 . no
O1 Al1 O1 Si2 -176.5(4) 7_665 . no
O1 Al1 O1 Mg1 0.0(2) 7_665 . no
O1 Al1 O1 Si2 64.9(4) 10_555 . no
O1 Al1 O1 Mg1 -118.6(2) 10_555 . no
O1 Al1 O1 Mg1 0.0(2) . 7_665 no
O1 Mg1 O1 Si2 -9.5(4) 3_655 . no
O1 Mg1 O1 Al1 174.34(19) 3_655 . no
O1 Mg1 O1 Si2 92.3(4) 5_665 . no
O1 Mg1 O1 Al1 -83.8(2) 5_665 . no
O1 Mg1 O1 Si2 176.1(4) 7_665 . no
O1 Mg1 O1 Al1 0.0(2) 7_665 . no
O1 Mg1 O1 Si2 -82.8(4) 9_555 . no
O1 Mg1 O1 Al1 101.1(2) 9_555 . no
O1 Mg1 O1 Al1 0.00(17) . 7_665 no
