#------------------------------------------------------------------------------
#$Date: 2015-07-14 02:02:10 +0300 (Tue, 14 Jul 2015) $
#$Revision: 151486 $
#$URL: svn://www.crystallography.net/cod/cif/4/03/12/4031259.cif $
#------------------------------------------------------------------------------
#
# This file is available in the Crystallography Open Database (COD),
# http://www.crystallography.net/
#
# All data on this site have been placed in the public domain by the
# contributors.
#
data_4031259
loop_
_publ_author_name
'Pena, A.'
'Gutierrez, J.'
'de Muro, I.G.'
'Campo, J.'
'Barandiaran, J.M.'
'Rojo, T.'
_publ_section_title
;
 Correlation between structure and magnetic and magnetotransport
 properties of La0.7 Pb0.3 (Mn(1-x) Co(x)) O3 (0.1 <= x <= 0.3) CMR
 Manganites
;
_journal_name_full               'European Journal of Inorganic Chemistry'
_journal_page_first              3227
_journal_page_last               3235
_journal_volume                  2006
_journal_year                    2006
_chemical_formula_sum            'Co0.3 La0.7 Mn0.7 O3 Pb0.3'
_chemical_name_systematic        'La0.7 Pb0.3 (Mn0.7 Co0.3) O3'
_space_group_IT_number           167
_symmetry_space_group_name_Hall  '-R 3 2"c'
_symmetry_space_group_name_H-M   'R -3 c :H'
_cell_angle_alpha                90
_cell_angle_beta                 90
_cell_angle_gamma                120
_cell_formula_units_Z            6
_cell_length_a                   5.4859
_cell_length_b                   5.4859
_cell_length_c                   13.2925
_cell_volume                     346.444
_citation_journal_id_ASTM        EJICFO
_cod_data_source_file            Pena_EJICFO_2006_1199.cif
_cod_data_source_block           Co0.3La0.7Mn0.7O3Pb0.3
_cod_database_code               4031259
loop_
_symmetry_equiv_pos_as_xyz
x,y,z
-y,x-y,z
-x+y,-x,z
y,x,-z+1/2
-x,-x+y,-z+1/2
x-y,-y,-z+1/2
-x,-y,-z
y,-x+y,-z
x-y,x,-z
-y,-x,z-1/2
x,x-y,z-1/2
-x+y,y,z-1/2
x+2/3,y+1/3,z+1/3
-y+2/3,x-y+1/3,z+1/3
-x+y+2/3,-x+1/3,z+1/3
y+2/3,x+1/3,-z+5/6
-x+2/3,-x+y+1/3,-z+5/6
x-y+2/3,-y+1/3,-z+5/6
-x+2/3,-y+1/3,-z+1/3
y+2/3,-x+y+1/3,-z+1/3
x-y+2/3,x+1/3,-z+1/3
-y+2/3,-x+1/3,z-1/6
x+2/3,x-y+1/3,z-1/6
-x+y+2/3,y+1/3,z-1/6
x+1/3,y+2/3,z+2/3
-y+1/3,x-y+2/3,z+2/3
-x+y+1/3,-x+2/3,z+2/3
y+1/3,x+2/3,-z+7/6
-x+1/3,-x+y+2/3,-z+7/6
x-y+1/3,-y+2/3,-z+7/6
-x+1/3,-y+2/3,-z+2/3
y+1/3,-x+y+2/3,-z+2/3
x-y+1/3,x+2/3,-z+2/3
-y+1/3,-x+2/3,z+1/6
x+1/3,x-y+2/3,z+1/6
-x+y+1/3,y+2/3,z+1/6
loop_
_atom_site_label
_atom_site_type_symbol
_atom_site_fract_x
_atom_site_fract_y
_atom_site_fract_z
_atom_site_occupancy
_atom_site_U_iso_or_equiv
La1 La+3 0 0 0.25 0.7 0.0
Mn1 Mn+3 0 0 0 0.7 0.0
Pb1 Pb+2 0 0 0.25 0.3 0.0
Co1 Co+3 0 0 0 0.3 0.0
O1 O-2 0.4551 0 0.25 1 0.0
