#------------------------------------------------------------------------------
#$Date: 2016-02-16 22:30:59 +0200 (Tue, 16 Feb 2016) $
#$Revision: 176467 $
#$URL: svn://www.crystallography.net/cod/cif/4/10/49/4104919.cif $
#------------------------------------------------------------------------------
#
# This file is available in the Crystallography Open Database (COD),
# http://www.crystallography.net/
#
# All data on this site have been placed in the public domain by the
# contributors.
#
data_4104919
loop_
_publ_author_name
'May Nyman'
'Mark A. Rodriguez'
'Lauren E. Shea-Rohwer'
'James E. Martin'
'Paula P. Provencio'
_publ_section_title
;
 Highly Versatile Rare Earth Tantalate Pyrochlore Nanophosphors
;
_journal_name_full               'Journal of the American Chemical Society'
_journal_page_first              11652
_journal_page_last               11653
_journal_paper_doi               10.1021/ja903823w
_journal_volume                  131
_journal_year                    2009
_chemical_formula_sum            'Gd0.5 K0.33 O3.42 Ta'
_chemical_formula_weight         327.27
_chemical_name_systematic        ' ?'
_space_group_IT_number           227
_symmetry_cell_setting           cubic
_symmetry_space_group_name_Hall  '-F 4vw 2vw 3'
_symmetry_space_group_name_H-M   'F d -3 m :2'
_audit_creation_date             2009-06-22T17:52
_audit_creation_method           'from EXP file using GSAS2CIF'
_cell_angle_alpha                90.0
_cell_angle_beta                 90.0
_cell_angle_gamma                90.0
_cell_formula_units_Z            16
_cell_length_a                   10.53833(11)
_cell_length_b                   10.53833
_cell_length_c                   10.53833
_cell_volume                     1170.349(12)
_computing_structure_refinement  GSAS
_diffrn_radiation_polarisn_ratio 0.5
_diffrn_radiation_probe          x-ray
_exptl_absorpt_process_details
;   GSAS Absorption/surface roughness correction: function number 0
 No correction is applied.
;
_pd_block_id                     2009-06-22T17:52|KGDTA2O7-SI_phase1|||
_pd_calc_method                  'Rietveld Refinement'
_pd_meas_2theta_range_inc        0.02
_pd_meas_2theta_range_max        90.0
_pd_meas_2theta_range_min        5.0
_pd_phase_name                   KGdTa2O7
_pd_proc_2theta_range_inc        0.02
_pd_proc_2theta_range_max        90.0
_pd_proc_2theta_range_min        5.0
_pd_proc_info_datetime           2009-06-22T17:52:03
_pd_proc_ls_background_function
;   GSAS Background function number 2 with  4 terms.
 Cosine Fourier series
      1:   -150.833     2:    716.866     3:   -313.367     4:    163.543    
;
_pd_proc_ls_prof_R_factor        0.0739
_pd_proc_ls_prof_wR_expected     0.0478
_pd_proc_ls_prof_wR_factor       0.0970
_refine_ls_goodness_of_fit_all   2.03
_refine_ls_matrix_type           full
_refine_ls_number_parameters     13
_refine_ls_number_restraints     0
_refine_ls_R_Fsqd_factor         0.08787
_refine_ls_shift/su_max          0.04
_refine_ls_shift/su_mean         0.01
_cod_data_source_file            ja903823w_si_004_1.cif
_cod_data_source_block           KGDTA2O7-SI_phase_1
_cod_depositor_comments
;
The following automatic conversions were performed:

'_geom_bond_publ_flag' value 'N' changed to 'n' according to the
built-in table from CIF Core dictionary named 'cif_core.dic' version
2.4.1 from 2010-06-29 (100 times).

'_geom_angle_publ_flag' value 'N'
changed to 'n' according to the built-in table from CIF Core
dictionary named 'cif_core.dic' version 2.4.1 from 2010-06-29 (667
times).

Automatic conversion script
Id: cif_fix_values 1715 2011-07-08 13:25:40Z adriana 
;
_cod_original_cell_volume        1170.35(4)
_cod_original_sg_symbol_H-M      'F d -3 m'
_cod_original_formula_sum        'Gd0.50 K0.33 O3.42 Ta'
_cod_database_code               4104919
_cod_database_fobs_code          4104919
loop_
_symmetry_equiv_pos_site_id
_symmetry_equiv_pos_as_xyz
1 +x,+y,+z
2 +z,+x,+y
3 +y,+z,+x
4 +x+1/4,+y+1/4,-z
5 -z,+x+1/4,+y+1/4
6 +y+1/4,-z,+x+1/4
7 -z+1/4,+x+1/2,-y+3/4
8 -y+3/4,-z+1/4,+x+1/2
9 +y+1/2,-z+1/4,-x+3/4
10 -x+3/4,+y+1/2,-z+1/4
11 -z+1/4,-x+3/4,+y+1/2
12 +x+1/2,-y+3/4,-z+1/4
13 +y,+x,+z
14 +z,+y,+x
15 +x,+z,+y
16 +y+1/4,+x+1/4,-z
17 -z,+y+1/4,+x+1/4
18 +x+1/4,-z,+y+1/4
19 -z+1/4,+y+1/2,-x+3/4
20 -x+3/4,-z+1/4,+y+1/2
21 +x+1/2,-z+1/4,-y+3/4
22 -y+3/4,+x+1/2,-z+1/4
23 -z+1/4,-y+3/4,+x+1/2
24 +y+1/2,-x+3/4,-z+1/4
-1 -x,-y,-z
-2 -z,-x,-y
-3 -y,-z,-x
-4 -x+3/4,-y+3/4,+z
-5 +z,-x+3/4,-y+3/4
-6 -y+3/4,+z,-x+3/4
-7 +z+3/4,-x+1/2,+y+1/4
-8 +y+1/4,+z+3/4,-x+1/2
-9 -y+1/2,+z+3/4,+x+1/4
-10 +x+1/4,-y+1/2,+z+3/4
-11 +z+3/4,+x+1/4,-y+1/2
-12 -x+1/2,+y+1/4,+z+3/4
-13 -y,-x,-z
-14 -z,-y,-x
-15 -x,-z,-y
-16 -y+3/4,-x+3/4,+z
-17 +z,-y+3/4,-x+3/4
-18 -x+3/4,+z,-y+3/4
-19 +z+3/4,-y+1/2,+x+1/4
-20 +x+1/4,+z+3/4,-y+1/2
-21 -x+1/2,+z+3/4,+y+1/4
-22 +y+1/4,-x+1/2,+z+3/4
-23 +z+3/4,+y+1/4,-x+1/2
-24 -y+1/2,+x+1/4,+z+3/4
101 +x,+y+1/2,+z+1/2
102 +z,+x+1/2,+y+1/2
103 +y,+z+1/2,+x+1/2
104 +x+1/4,+y+3/4,-z+1/2
105 -z,+x+3/4,+y+3/4
106 +y+1/4,-z+1/2,+x+3/4
107 -z+1/4,+x,-y+1/4
108 -y+3/4,-z+3/4,+x
109 +y+1/2,-z+3/4,-x+1/4
110 -x+3/4,+y,-z+3/4
111 -z+1/4,-x+1/4,+y
112 +x+1/2,-y+1/4,-z+3/4
113 +y,+x+1/2,+z+1/2
114 +z,+y+1/2,+x+1/2
115 +x,+z+1/2,+y+1/2
116 +y+1/4,+x+3/4,-z+1/2
117 -z,+y+3/4,+x+3/4
118 +x+1/4,-z+1/2,+y+3/4
119 -z+1/4,+y,-x+1/4
120 -x+3/4,-z+3/4,+y
121 +x+1/2,-z+3/4,-y+1/4
122 -y+3/4,+x,-z+3/4
123 -z+1/4,-y+1/4,+x
124 +y+1/2,-x+1/4,-z+3/4
-101 -x,-y+1/2,-z+1/2
-102 -z,-x+1/2,-y+1/2
-103 -y,-z+1/2,-x+1/2
-104 -x+3/4,-y+1/4,+z+1/2
-105 +z,-x+1/4,-y+1/4
-106 -y+3/4,+z+1/2,-x+1/4
-107 +z+3/4,-x,+y+3/4
-108 +y+1/4,+z+1/4,-x
-109 -y+1/2,+z+1/4,+x+3/4
-110 +x+1/4,-y,+z+1/4
-111 +z+3/4,+x+3/4,-y
-112 -x+1/2,+y+3/4,+z+1/4
-113 -y,-x+1/2,-z+1/2
-114 -z,-y+1/2,-x+1/2
-115 -x,-z+1/2,-y+1/2
-116 -y+3/4,-x+1/4,+z+1/2
-117 +z,-y+1/4,-x+1/4
-118 -x+3/4,+z+1/2,-y+1/4
-119 +z+3/4,-y,+x+3/4
-120 +x+1/4,+z+1/4,-y
-121 -x+1/2,+z+1/4,+y+3/4
-122 +y+1/4,-x,+z+1/4
-123 +z+3/4,+y+3/4,-x
-124 -y+1/2,+x+3/4,+z+1/4
201 +x+1/2,+y,+z+1/2
202 +z+1/2,+x,+y+1/2
203 +y+1/2,+z,+x+1/2
204 +x+3/4,+y+1/4,-z+1/2
205 -z+1/2,+x+1/4,+y+3/4
206 +y+3/4,-z,+x+3/4
207 -z+3/4,+x+1/2,-y+1/4
208 -y+1/4,-z+1/4,+x
209 +y,-z+1/4,-x+1/4
210 -x+1/4,+y+1/2,-z+3/4
211 -z+3/4,-x+3/4,+y
212 +x,-y+3/4,-z+3/4
213 +y+1/2,+x,+z+1/2
214 +z+1/2,+y,+x+1/2
215 +x+1/2,+z,+y+1/2
216 +y+3/4,+x+1/4,-z+1/2
217 -z+1/2,+y+1/4,+x+3/4
218 +x+3/4,-z,+y+3/4
219 -z+3/4,+y+1/2,-x+1/4
220 -x+1/4,-z+1/4,+y
221 +x,-z+1/4,-y+1/4
222 -y+1/4,+x+1/2,-z+3/4
223 -z+3/4,-y+3/4,+x
224 +y,-x+3/4,-z+3/4
-201 -x+1/2,-y,-z+1/2
-202 -z+1/2,-x,-y+1/2
-203 -y+1/2,-z,-x+1/2
-204 -x+1/4,-y+3/4,+z+1/2
-205 +z+1/2,-x+3/4,-y+1/4
-206 -y+1/4,+z,-x+1/4
-207 +z+1/4,-x+1/2,+y+3/4
-208 +y+3/4,+z+3/4,-x
-209 -y,+z+3/4,+x+3/4
-210 +x+3/4,-y+1/2,+z+1/4
-211 +z+1/4,+x+1/4,-y
-212 -x,+y+1/4,+z+1/4
-213 -y+1/2,-x,-z+1/2
-214 -z+1/2,-y,-x+1/2
-215 -x+1/2,-z,-y+1/2
-216 -y+1/4,-x+3/4,+z+1/2
-217 +z+1/2,-y+3/4,-x+1/4
-218 -x+1/4,+z,-y+1/4
-219 +z+1/4,-y+1/2,+x+3/4
-220 +x+3/4,+z+3/4,-y
-221 -x,+z+3/4,+y+3/4
-222 +y+3/4,-x+1/2,+z+1/4
-223 +z+1/4,+y+1/4,-x
-224 -y,+x+1/4,+z+1/4
301 +x+1/2,+y+1/2,+z
302 +z+1/2,+x+1/2,+y
303 +y+1/2,+z+1/2,+x
304 +x+3/4,+y+3/4,-z
305 -z+1/2,+x+3/4,+y+1/4
306 +y+3/4,-z+1/2,+x+1/4
307 -z+3/4,+x,-y+3/4
308 -y+1/4,-z+3/4,+x+1/2
309 +y,-z+3/4,-x+3/4
310 -x+1/4,+y,-z+1/4
311 -z+3/4,-x+1/4,+y+1/2
312 +x,-y+1/4,-z+1/4
313 +y+1/2,+x+1/2,+z
314 +z+1/2,+y+1/2,+x
315 +x+1/2,+z+1/2,+y
316 +y+3/4,+x+3/4,-z
317 -z+1/2,+y+3/4,+x+1/4
318 +x+3/4,-z+1/2,+y+1/4
319 -z+3/4,+y,-x+3/4
320 -x+1/4,-z+3/4,+y+1/2
321 +x,-z+3/4,-y+3/4
322 -y+1/4,+x,-z+1/4
323 -z+3/4,-y+1/4,+x+1/2
324 +y,-x+1/4,-z+1/4
-301 -x+1/2,-y+1/2,-z
-302 -z+1/2,-x+1/2,-y
-303 -y+1/2,-z+1/2,-x
-304 -x+1/4,-y+1/4,+z
-305 +z+1/2,-x+1/4,-y+3/4
-306 -y+1/4,+z+1/2,-x+3/4
-307 +z+1/4,-x,+y+1/4
-308 +y+3/4,+z+1/4,-x+1/2
-309 -y,+z+1/4,+x+1/4
-310 +x+3/4,-y,+z+3/4
-311 +z+1/4,+x+3/4,-y+1/2
-312 -x,+y+3/4,+z+3/4
-313 -y+1/2,-x+1/2,-z
-314 -z+1/2,-y+1/2,-x
-315 -x+1/2,-z+1/2,-y
-316 -y+1/4,-x+1/4,+z
-317 +z+1/2,-y+1/4,-x+3/4
-318 -x+1/4,+z+1/2,-y+3/4
-319 +z+1/4,-y,+x+1/4
-320 +x+3/4,+z+1/4,-y+1/2
-321 -x,+z+1/4,+y+1/4
-322 +y+3/4,-x,+z+3/4
-323 +z+1/4,+y+3/4,-x+1/2
-324 -y,+x+3/4,+z+3/4
loop_
_atom_site_type_symbol
_atom_site_label
_atom_site_fract_x
_atom_site_fract_y
_atom_site_fract_z
_atom_site_occupancy
_atom_site_thermal_displace_type
_atom_site_U_iso_or_equiv
_atom_site_symmetry_multiplicity
K+ K 0.0431(11) 0.0431(11) 0.0431(11) 0.1667 Uiso 0.0173(5) 32
Gd Gd 0.0 0.0 0.0 0.5 Uiso 0.0173(5) 16
Ta Ta 0.5 0.5 0.5 1.0 Uiso 0.0173(5) 16
O- O2 0.4314(6) 0.125 0.125 1.0 Uiso 0.0173(5) 48
O- O3 0.125 0.125 0.125 0.8333 Uiso 0.0173(5) 8
loop_
_atom_type_symbol
_atom_type_scat_dispersion_real
_atom_type_scat_dispersion_imag
_atom_type_scat_Cromer_Mann_a1
_atom_type_scat_Cromer_Mann_a2
_atom_type_scat_Cromer_Mann_a3
_atom_type_scat_Cromer_Mann_a4
_atom_type_scat_Cromer_Mann_b1
_atom_type_scat_Cromer_Mann_b2
_atom_type_scat_Cromer_Mann_b3
_atom_type_scat_Cromer_Mann_b4
_atom_type_scat_Cromer_Mann_c
_atom_type_scat_source
_atom_type_number_in_cell
K+1 0.000 0.000 7.95780 12.6331 7.49170 0.76740 6.35900 -0.0020 1.19150 31.9128
-4.9978 International_Tables_Vol_C 5.334
Gd+3 0.000 0.000 24.3466 2.13553 20.4208 0.15552 11.8708 10.5782 3.71490
21.7029 0.64509 International_Tables_Vol_C 8.0
Ta+5 0.000 0.000 29.1587 1.50711 18.8407 0.11674 12.8268 6.31524 5.38695
12.4244 1.78555 International_Tables_Vol_C 16.0
Si 0.000 0.000 6.29150 2.43860 3.03530 32.3337 1.98910 0.67850 1.54100 81.6937
1.14070 International_Tables_Vol_C 0
O-2 0.047 0.032 3.76936 15.0797 2.53342 6.30430 1.91579 40.3445 1.55094 0.31291
0.22789 International_Tables_Vol_C 54.666
loop_
_diffrn_radiation_wavelength
_diffrn_radiation_wavelength_wt
_diffrn_radiation_type
_diffrn_radiation_wavelength_id
1.540590 1.000 K\a~1~ 1
1.544300 0.500 K\a~2~ 2
loop_
_geom_angle_atom_site_label_1
_geom_angle_atom_site_label_2
_geom_angle_atom_site_label_3
_geom_angle
_geom_angle_site_symmetry_1
_geom_angle_site_symmetry_3
_geom_angle_publ_flag
K K K 81.6(5) 4_555 5_555 n
K K K 81.6(5) 4_555 6_555 n
K K K 131.04(34) 4_555 -1_555 n
K K K 118.16(9) 4_555 105_544 n
K K K 71.44(28) 4_555 107_434 n
K K K 13.70(34) 4_555 111_434 n
K K K 71.44(28) 4_555 -105_445 n
K K K 118.16(9) 4_555 -107_445 n
K K K 152.6(7) 4_555 -111_445 n
K K Gd 131.04(34) 4_555 1_555 n
K K Gd 5.32(8) 4_555 4_555 n
K K Gd 77.6(5) 4_555 5_555 n
K K Gd 77.6(5) 4_555 6_555 n
K K Ta 140.8(4) 4_555 7_545 n
K K Ta 97.79(14) 4_555 8_554 n
K K Ta 140.8(4) 4_555 9_455 n
K K Ta 59.765(11) 4_555 10_545 n
K K Ta 97.79(14) 4_555 11_554 n
K K Ta 59.765(11) 4_555 12_455 n
K K O2 85.97(10) 4_555 105_544 n
K K O2 117.7(4) 4_555 111_433 n
K K O2 163.5(7) 4_555 117_544 n
K K O2 49.00(12) 4_555 119_433 n
K K O2 85.97(10) 4_555 218_454 n
K K K 81.6(5) 5_555 6_555 n
K K K 131.04(34) 5_555 -1_555 n
K K K 152.6(7) 5_555 105_544 n
K K K 71.44(28) 5_555 107_434 n
K K K 71.44(28) 5_555 111_434 n
K K K 13.70(34) 5_555 -105_445 n
K K K 118.16(9) 5_555 -107_445 n
K K K 118.16(9) 5_555 -111_445 n
K K Gd 131.04(34) 5_555 1_555 n
K K Gd 77.6(5) 5_555 4_555 n
K K Gd 5.32(8) 5_555 5_555 n
K K Gd 77.6(5) 5_555 6_555 n
K K Ta 59.765(11) 5_555 7_545 n
K K Ta 140.8(4) 5_555 8_554 n
K K Ta 97.79(14) 5_555 9_455 n
K K Ta 140.8(4) 5_555 10_545 n
K K Ta 59.765(11) 5_555 11_554 n
K K Ta 97.79(14) 5_555 12_455 n
K K O2 85.97(10) 5_555 105_544 n
K K O2 117.7(4) 5_555 111_433 n
K K O2 85.97(10) 5_555 117_544 n
K K O2 117.7(4) 5_555 119_433 n
K K O2 163.5(7) 5_555 218_454 n
K K K 131.04(34) 6_555 -1_555 n
K K K 118.16(9) 6_555 105_544 n
K K K 13.70(34) 6_555 107_434 n
K K K 71.44(28) 6_555 111_434 n
K K K 71.44(28) 6_555 -105_445 n
K K K 152.6(7) 6_555 -107_445 n
K K K 118.16(9) 6_555 -111_445 n
K K Gd 131.04(34) 6_555 1_555 n
K K Gd 77.6(5) 6_555 4_555 n
K K Gd 77.6(5) 6_555 5_555 n
K K Gd 5.32(8) 6_555 6_555 n
K K Ta 97.79(14) 6_555 7_545 n
K K Ta 59.765(11) 6_555 8_554 n
K K Ta 59.765(11) 6_555 9_455 n
K K Ta 97.79(14) 6_555 10_545 n
K K Ta 140.8(4) 6_555 11_554 n
K K Ta 140.8(4) 6_555 12_455 n
K K O2 163.5(7) 6_555 105_544 n
K K O2 49.00(12) 6_555 111_433 n
K K O2 85.97(10) 6_555 117_544 n
K K O2 117.7(4) 6_555 119_433 n
K K O2 85.97(10) 6_555 218_454 n
K K K 21.57(34) -1_555 105_544 n
K K K 144.73560(20) -1_555 107_434 n
K K K 144.7356(4) -1_555 111_434 n
K K K 144.73560(30) -1_555 -105_445 n
K K K 21.57(34) -1_555 -107_445 n
K K K 21.57(34) -1_555 -111_445 n
K K Gd 0.0 -1_555 1_555 n
K K Gd 136.36(25) -1_555 4_555 n
K K Gd 136.36(25) -1_555 5_555 n
K K Gd 136.36(25) -1_555 6_555 n
K K Ta 78.08(29) -1_555 7_545 n
K K Ta 78.08(29) -1_555 8_554 n
K K Ta 78.08(29) -1_555 9_455 n
K K Ta 78.08(29) -1_555 10_545 n
K K Ta 78.08(29) -1_555 11_554 n
K K Ta 78.08(29) -1_555 12_455 n
K K O2 65.5(4) -1_555 105_544 n
K K O2 82.0(4) -1_555 111_433 n
K K O2 65.5(4) -1_555 117_544 n
K K O2 82.0(4) -1_555 119_433 n
K K O2 65.5(4) -1_555 218_454 n
K K K 130.78(25) 105_544 107_434 n
K K K 130.78(25) 105_544 111_434 n
K K K 166.30(34) 105_544 -105_445 n
K K K 37.1(6) 105_544 -107_445 n
K K K 37.1(6) 105_544 -111_445 n
K K Gd 21.57(34) 105_544 1_555 n
K K Gd 123.1052(5) 105_544 4_555 n
K K Gd 157.9(6) 105_544 5_555 n
K K Gd 123.1052(5) 105_544 6_555 n
K K Ta 96.9(6) 105_544 7_545 n
K K Ta 59.765(11) 105_544 8_554 n
K K Ta 78.93(30) 105_544 9_455 n
K K Ta 59.765(11) 105_544 10_545 n
K K Ta 96.9(6) 105_544 11_554 n
K K Ta 78.93(30) 105_544 12_455 n
K K O2 77.3(5) 105_544 105_544 n
K K O2 71.89(27) 105_544 111_433 n
K K O2 77.3(5) 105_544 117_544 n
K K O2 71.89(27) 105_544 119_433 n
K K O2 43.89(11) 105_544 218_454 n
K K K 60.00000(30) 107_434 111_434 n
K K K 60.0000(5) 107_434 -105_445 n
K K K 166.30(34) 107_434 -107_445 n
K K K 130.78(25) 107_434 -111_445 n
K K Gd 144.73560(20) 107_533 1_555 n
K K Gd 66.94(21) 107_533 4_555 n
K K Gd 66.94(21) 107_533 5_555 n
K K Gd 8.38(25) 107_533 6_555 n
K K Ta 99.71(24) 107_443 7_545 n
K K Ta 71.30(28) 107_443 8_554 n
K K Ta 71.30(28) 107_443 9_455 n
K K Ta 99.71(24) 107_443 10_545 n
K K Ta 131.14(27) 107_443 11_554 n
K K Ta 131.14(27) 107_443 12_455 n
K K O2 149.8(4) 107_433 105_544 n
K K O2 62.7(4) 107_433 111_433 n
K K O2 94.39(31) 107_433 117_544 n
K K O2 113.5(4) 107_433 119_433 n
K K O2 94.39(31) 107_433 218_454 n
K K K 60.00000(30) 111_434 -105_445 n
K K K 130.78(25) 111_434 -107_445 n
K K K 166.30(34) 111_434 -111_445 n
K K Gd 144.7356(4) 111_533 1_555 n
K K Gd 8.38(25) 111_533 4_555 n
K K Gd 66.94(21) 111_533 5_555 n
K K Gd 66.94(21) 111_533 6_555 n
K K Ta 131.14(27) 111_443 7_545 n
K K Ta 99.71(24) 111_443 8_554 n
K K Ta 131.14(27) 111_443 9_455 n
K K Ta 71.30(28) 111_443 10_545 n
K K Ta 99.71(24) 111_443 11_554 n
K K Ta 71.30(28) 111_443 12_455 n
K K O2 94.39(31) 111_433 105_544 n
K K O2 113.5(4) 111_433 111_433 n
K K O2 149.8(4) 111_433 117_544 n
K K O2 62.7(4) 111_433 119_433 n
K K O2 94.39(31) 111_433 218_454 n
K K K 130.78(25) -105_445 -107_445 n
K K K 130.78(25) -105_445 -111_445 n
K K Gd 144.73560(20) -105_544 1_555 n
K K Gd 66.94(21) -105_544 4_555 n
K K Gd 8.38(25) -105_544 5_555 n
K K Gd 66.94(21) -105_544 6_555 n
K K Ta 71.30(28) -105_454 7_545 n
K K Ta 131.14(27) -105_454 8_554 n
K K Ta 99.71(24) -105_454 9_455 n
K K Ta 131.14(27) -105_454 10_545 n
K K Ta 71.30(28) -105_454 11_554 n
K K Ta 99.71(24) -105_454 12_455 n
K K O2 94.39(31) -105_444 105_544 n
K K O2 113.5(4) -105_444 111_433 n
K K O2 94.39(31) -105_444 117_544 n
K K O2 113.5(4) -105_444 119_433 n
K K O2 149.8(4) -105_444 218_454 n
K K K 37.1(6) -107_445 -111_445 n
K K Gd 21.57(34) -107_544 1_555 n
K K Gd 123.1052(5) -107_544 4_555 n
K K Gd 123.1052(5) -107_544 5_555 n
K K Gd 157.9(6) -107_544 6_555 n
K K Ta 78.93(30) -107_454 7_545 n
K K Ta 96.9(6) -107_454 8_554 n
K K Ta 96.9(6) -107_454 9_455 n
K K Ta 78.93(30) -107_454 10_545 n
K K Ta 59.765(11) -107_454 11_554 n
K K Ta 59.765(11) -107_454 12_455 n
K K O2 43.89(11) -107_444 105_544 n
K K O2 103.6(8) -107_444 111_433 n
K K O2 77.3(5) -107_444 117_544 n
K K O2 71.89(27) -107_444 119_433 n
K K O2 77.3(5) -107_444 218_454 n
K K Gd 21.57(34) -111_544 1_555 n
K K Gd 157.9(6) -111_544 4_555 n
K K Gd 123.10520(20) -111_544 5_555 n
K K Gd 123.10520(20) -111_544 6_555 n
K K Ta 59.765(11) -111_454 7_545 n
K K Ta 78.93(30) -111_454 8_554 n
K K Ta 59.765(11) -111_454 9_455 n
K K Ta 96.9(6) -111_454 10_545 n
K K Ta 78.93(30) -111_454 11_554 n
K K Ta 96.9(6) -111_454 12_455 n
K K O2 77.3(5) -111_444 105_544 n
K K O2 71.89(27) -111_444 111_433 n
K K O2 43.89(11) -111_444 117_544 n
K K O2 103.6(8) -111_444 119_433 n
K K O2 77.3(5) -111_444 218_454 n
Gd K Gd 136.36(25) 1_555 4_555 n
Gd K Gd 136.36(25) 1_555 5_555 n
Gd K Gd 136.36(25) 1_555 6_555 n
Gd K Ta 78.08(29) 1_555 7_545 n
Gd K Ta 78.08(29) 1_555 8_554 n
Gd K Ta 78.08(29) 1_555 9_455 n
Gd K Ta 78.08(29) 1_555 10_545 n
Gd K Ta 78.08(29) 1_555 11_554 n
Gd K Ta 78.08(29) 1_555 12_455 n
Gd K O2 65.5(4) 1_555 105_544 n
Gd K O2 82.0(4) 1_555 111_433 n
Gd K O2 65.5(4) 1_555 117_544 n
Gd K O2 82.0(4) 1_555 119_433 n
Gd K O2 65.5(4) 1_555 218_454 n
Gd K Gd 73.4(4) 4_555 5_555 n
Gd K Gd 73.4(4) 4_555 6_555 n
Gd K Ta 137.2(4) 4_555 7_545 n
Gd K Ta 98.60(17) 4_555 8_554 n
Gd K Ta 137.2(4) 4_555 9_455 n
Gd K Ta 64.19(6) 4_555 10_545 n
Gd K Ta 98.60(17) 4_555 11_554 n
Gd K Ta 64.19(6) 4_555 12_455 n
Gd K O2 89.24(15) 4_555 105_544 n
Gd K O2 116.2(4) 4_555 111_433 n
Gd K O2 158.2(6) 4_555 117_544 n
Gd K O2 54.32(19) 4_555 119_433 n
Gd K O2 89.24(15) 4_555 218_454 n
Gd K Gd 73.4(4) 5_555 6_555 n
Gd K Ta 64.19(6) 5_555 7_545 n
Gd K Ta 137.2(4) 5_555 8_554 n
Gd K Ta 98.60(17) 5_555 9_455 n
Gd K Ta 137.2(4) 5_555 10_545 n
Gd K Ta 64.19(6) 5_555 11_554 n
Gd K Ta 98.60(17) 5_555 12_455 n
Gd K O2 89.24(15) 5_555 105_544 n
Gd K O2 116.2(4) 5_555 111_433 n
Gd K O2 89.24(15) 5_555 117_544 n
Gd K O2 116.2(4) 5_555 119_433 n
Gd K O2 158.2(6) 5_555 218_454 n
Gd K Ta 98.60(17) 6_555 7_545 n
Gd K Ta 64.19(6) 6_555 8_554 n
Gd K Ta 64.19(6) 6_555 9_455 n
Gd K Ta 98.60(17) 6_555 10_545 n
Gd K Ta 137.2(4) 6_555 11_554 n
Gd K Ta 137.2(4) 6_555 12_455 n
Gd K O2 158.2(6) 6_555 105_544 n
Gd K O2 54.32(19) 6_555 111_433 n
Gd K O2 89.24(15) 6_555 117_544 n
Gd K O2 116.2(4) 6_555 119_433 n
Gd K O2 89.24(15) 6_555 218_454 n
Ta K Ta 115.85(20) 7_545 8_554 n
Ta K Ta 58.58(7) 7_545 9_455 n
Ta K Ta 156.2(6) 7_545 10_545 n
Ta K Ta 58.58(7) 7_545 11_554 n
Ta K Ta 115.85(20) 7_545 12_455 n
Ta K O2 85.08(19) 7_545 105_544 n
Ta K O2 88.36(13) 7_545 111_433 n
Ta K O2 31.07(5) 7_545 117_544 n
Ta K O2 144.2(4) 7_545 119_433 n
Ta K O2 133.2(5) 7_545 218_454 n
Ta K Ta 58.58(7) 8_554 9_455 n
Ta K Ta 58.58(7) 8_554 10_545 n
Ta K Ta 156.2(6) 8_554 11_554 n
Ta K Ta 115.85(20) 8_554 12_455 n
Ta K O2 133.2(5) 8_554 105_544 n
Ta K O2 29.80(5) 8_554 111_433 n
Ta K O2 85.08(19) 8_554 117_544 n
Ta K O2 88.36(13) 8_554 119_433 n
Ta K O2 31.07(5) 8_554 218_454 n
Ta K Ta 115.85(20) 9_455 10_545 n
Ta K Ta 115.85(20) 9_455 11_554 n
Ta K Ta 156.2(6) 9_455 12_455 n
Ta K O2 133.2(5) 9_455 105_544 n
Ta K O2 29.80(5) 9_455 111_433 n
Ta K O2 31.07(5) 9_455 117_544 n
Ta K O2 144.2(4) 9_455 119_433 n
Ta K O2 85.08(19) 9_455 218_454 n
Ta K Ta 115.85(20) 10_545 11_554 n
Ta K Ta 58.58(7) 10_545 12_455 n
Ta K O2 85.08(19) 10_545 105_544 n
Ta K O2 88.36(13) 10_545 111_433 n
Ta K O2 133.2(5) 10_545 117_544 n
Ta K O2 29.80(5) 10_545 119_433 n
Ta K O2 31.07(5) 10_545 218_454 n
Ta K Ta 58.58(7) 11_554 12_455 n
Ta K O2 31.07(5) 11_554 105_544 n
Ta K O2 144.2(4) 11_554 111_433 n
Ta K O2 85.08(19) 11_554 117_544 n
Ta K O2 88.36(13) 11_554 119_433 n
Ta K O2 133.2(5) 11_554 218_454 n
Ta K O2 31.07(5) 12_455 105_544 n
Ta K O2 144.2(4) 12_455 111_433 n
Ta K O2 133.2(5) 12_455 117_544 n
Ta K O2 29.80(5) 12_455 119_433 n
Ta K O2 85.08(19) 12_455 218_454 n
O2 K O2 147.5(8) 105_544 111_433 n
O2 K O2 104.0(4) 105_544 117_544 n
O2 K O2 59.47(15) 105_544 119_433 n
O2 K O2 104.0(4) 105_544 218_454 n
O2 K O2 59.47(15) 111_433 117_544 n
O2 K O2 118.11(21) 111_433 119_433 n
O2 K O2 59.47(15) 111_433 218_454 n
O2 K O2 147.5(8) 117_544 119_433 n
O2 K O2 104.0(4) 117_544 218_454 n
O2 K O2 59.47(15) 119_433 218_454 n
K Gd K 180.0 1_555 -1_555 n
K Gd K 153.11(25) 1_555 105_544 n
K Gd K 26.89(25) 1_555 107_434 n
K Gd K 26.89(25) 1_555 111_434 n
K Gd K 26.89(25) 1_555 -105_445 n
K Gd K 153.11(25) 1_555 -107_445 n
K Gd K 153.11(25) 1_555 -111_445 n
K Gd O2 99.00(10) 1_555 105_544 n
K Gd O2 81.00(10) 1_555 111_433 n
K Gd O2 99.00(10) 1_555 117_544 n
K Gd O2 81.00(10) 1_555 119_433 n
K Gd O2 99.00(10) 1_555 218_454 n
K Gd O2 81.00(10) 1_555 220_343 n
K Gd O3 0.0198 1_555 1_555 n
K Gd O3 180.0 1_555 -1_555 n
K Gd K 26.89(25) -1_555 105_544 n
K Gd K 153.11(25) -1_555 107_434 n
K Gd K 153.11(25) -1_555 111_434 n
K Gd K 153.11(25) -1_555 -105_445 n
K Gd K 26.89(25) -1_555 -107_445 n
K Gd K 26.89(25) -1_555 -111_445 n
K Gd O2 81.00(10) -1_555 105_544 n
K Gd O2 99.00(10) -1_555 111_433 n
K Gd O2 81.00(10) -1_555 117_544 n
K Gd O2 99.00(10) -1_555 119_433 n
K Gd O2 81.00(10) -1_555 218_454 n
K Gd O2 99.00(10) -1_555 220_343 n
K Gd O3 180.0 -1_555 1_555 n
K Gd O3 0.0198 -1_555 -1_555 n
K Gd K 133.9(4) 105_544 107_434 n
K Gd K 133.9(4) 105_544 111_434 n
K Gd K 179.9604 105_544 -105_445 n
K Gd K 46.1(4) 105_544 -107_445 n
K Gd K 46.1(4) 105_544 -111_445 n
K Gd O2 94.81(15) 105_544 105_544 n
K Gd O2 85.19(15) 105_544 111_433 n
K Gd O2 94.81(15) 105_544 117_544 n
K Gd O2 85.19(15) 105_544 119_433 n
K Gd O2 54.11(28) 105_544 218_454 n
K Gd O2 125.89(28) 105_544 220_343 n
K Gd O3 153.11(25) 105_544 1_555 n
K Gd O3 26.89(25) 105_544 -1_555 n
K Gd K 46.1(4) 107_434 111_434 n
K Gd K 46.1(4) 107_434 -105_445 n
K Gd K 180.0 107_434 -107_445 n
K Gd K 133.9(4) 107_434 -111_445 n
K Gd O2 125.89(28) 107_433 105_544 n
K Gd O2 54.11(28) 107_433 111_433 n
K Gd O2 85.19(15) 107_433 117_544 n
K Gd O2 94.81(15) 107_433 119_433 n
K Gd O2 85.19(15) 107_433 218_454 n
K Gd O2 94.81(15) 107_433 220_343 n
K Gd O3 26.89(25) 107_433 1_555 n
K Gd O3 153.11(25) 107_433 -1_555 n
K Gd K 46.1(4) 111_434 -105_445 n
K Gd K 133.9(4) 111_434 -107_445 n
K Gd K 180.0 111_434 -111_445 n
K Gd O2 85.19(15) 111_433 105_544 n
K Gd O2 94.81(15) 111_433 111_433 n
K Gd O2 125.89(28) 111_433 117_544 n
K Gd O2 54.11(28) 111_433 119_433 n
K Gd O2 85.19(15) 111_433 218_454 n
K Gd O2 94.81(15) 111_433 220_343 n
K Gd O3 26.89(25) 111_433 1_555 n
K Gd O3 153.11(25) 111_433 -1_555 n
K Gd K 133.9(4) -105_445 -107_445 n
K Gd K 133.9(4) -105_445 -111_445 n
K Gd O2 85.19(15) -105_444 105_544 n
K Gd O2 94.81(15) -105_444 111_433 n
K Gd O2 85.19(15) -105_444 117_544 n
K Gd O2 94.81(15) -105_444 119_433 n
K Gd O2 125.89(28) -105_444 218_454 n
K Gd O2 54.11(28) -105_444 220_343 n
K Gd O3 26.89(25) -105_444 1_555 n
K Gd O3 153.11(25) -105_444 -1_555 n
K Gd K 46.1(4) -107_445 -111_445 n
K Gd O2 54.11(28) -107_444 105_544 n
K Gd O2 125.89(28) -107_444 111_433 n
K Gd O2 94.81(15) -107_444 117_544 n
K Gd O2 85.19(15) -107_444 119_433 n
K Gd O2 94.81(15) -107_444 218_454 n
K Gd O2 85.19(15) -107_444 220_343 n
K Gd O3 153.11(25) -107_444 1_555 n
K Gd O3 26.89(25) -107_444 -1_555 n
K Gd O2 94.81(15) -111_444 105_544 n
K Gd O2 85.19(15) -111_444 111_433 n
K Gd O2 54.11(28) -111_444 117_544 n
K Gd O2 125.89(28) -111_444 119_433 n
K Gd O2 94.81(15) -111_444 218_454 n
K Gd O2 85.19(15) -111_444 220_343 n
K Gd O3 153.11(25) -111_444 1_555 n
K Gd O3 26.89(25) -111_444 -1_555 n
O2 Gd O2 179.972 105_544 111_433 n
O2 Gd O2 117.60(5) 105_544 117_544 n
O2 Gd O2 62.40(5) 105_544 119_433 n
O2 Gd O2 117.60(5) 105_544 218_454 n
O2 Gd O2 62.40(5) 105_544 220_343 n
O2 Gd O3 99.00(10) 105_544 1_555 n
O2 Gd O3 81.00(10) 105_544 -1_555 n
O2 Gd O2 62.40(5) 111_433 117_544 n
O2 Gd O2 117.60(5) 111_433 119_433 n
O2 Gd O2 62.40(5) 111_433 218_454 n
O2 Gd O2 117.60(5) 111_433 220_343 n
O2 Gd O3 81.00(10) 111_433 1_555 n
O2 Gd O3 99.00(10) 111_433 -1_555 n
O2 Gd O2 179.972 117_544 119_433 n
O2 Gd O2 117.60(5) 117_544 218_454 n
O2 Gd O2 62.40(5) 117_544 220_343 n
O2 Gd O3 99.00(10) 117_544 1_555 n
O2 Gd O3 81.00(10) 117_544 -1_555 n
O2 Gd O2 62.40(5) 119_433 218_454 n
O2 Gd O2 117.60(5) 119_433 220_343 n
O2 Gd O3 81.00(10) 119_433 1_555 n
O2 Gd O3 99.00(10) 119_433 -1_555 n
O2 Gd O2 179.972 218_454 220_343 n
O2 Gd O3 99.00(10) 218_454 1_555 n
O2 Gd O3 81.00(10) 218_454 -1_555 n
O2 Gd O3 81.00(10) 220_343 1_555 n
O2 Gd O3 99.00(10) 220_343 -1_555 n
O3 Gd O3 180.0 1_555 -1_555 n
K Ta K 119.531(23) 7_555 8_555 n
K Ta K 82.3(5) 7_555 9_555 n
K Ta K 156.2(6) 7_555 10_555 n
K Ta K 37.4(6) 7_555 11_555 n
K Ta K 119.531(23) 7_555 12_555 n
K Ta K 179.9802 7_555 -7_556 n
K Ta K 60.469(23) 7_555 -8_556 n
K Ta K 97.7(5) 7_555 -9_556 n
K Ta K 23.8(6) 7_555 -10_556 n
K Ta K 142.6(6) 7_555 -11_556 n
K Ta K 60.469(23) 7_555 -12_556 n
K Ta O2 41.44(15) 7_555 101_555 n
K Ta O2 131.55(17) 7_555 108_443 n
K Ta O2 101.56(28) 7_555 122_434 n
K Ta O2 138.56(15) 7_555 -101_544 n
K Ta O2 48.45(17) 7_555 -108_545 n
K Ta O2 78.44(28) 7_555 -122_554 n
K Ta K 37.4(6) 8_555 9_555 n
K Ta K 82.3(5) 8_555 10_555 n
K Ta K 156.2(6) 8_555 11_555 n
K Ta K 119.531(23) 8_555 12_555 n
K Ta K 60.469(23) 8_555 -7_556 n
K Ta K 179.9802 8_555 -8_556 n
K Ta K 142.6(6) 8_555 -9_556 n
K Ta K 97.7(5) 8_555 -10_556 n
K Ta K 23.8(6) 8_555 -11_556 n
K Ta K 60.469(23) 8_555 -12_556 n
K Ta O2 131.55(17) 8_555 101_555 n
K Ta O2 101.56(28) 8_555 108_443 n
K Ta O2 41.44(15) 8_555 122_434 n
K Ta O2 48.45(17) 8_555 -101_544 n
K Ta O2 78.44(28) 8_555 -108_545 n
K Ta O2 138.56(15) 8_555 -122_554 n
K Ta K 119.531(23) 9_555 10_555 n
K Ta K 119.531(23) 9_555 11_555 n
K Ta K 156.2(6) 9_555 12_555 n
K Ta K 97.7(5) 9_555 -7_556 n
K Ta K 142.6(6) 9_555 -8_556 n
K Ta K 179.9802 9_555 -9_556 n
K Ta K 60.469(23) 9_555 -10_556 n
K Ta K 60.469(23) 9_555 -11_556 n
K Ta K 23.8(6) 9_555 -12_556 n
K Ta O2 101.56(28) 9_555 101_555 n
K Ta O2 131.55(17) 9_555 108_443 n
K Ta O2 41.44(15) 9_555 122_434 n
K Ta O2 78.44(28) 9_555 -101_544 n
K Ta O2 48.45(17) 9_555 -108_545 n
K Ta O2 138.56(15) 9_555 -122_554 n
K Ta K 119.531(23) 10_555 11_555 n
K Ta K 37.4(6) 10_555 12_555 n
K Ta K 23.8(6) 10_555 -7_556 n
K Ta K 97.7(5) 10_555 -8_556 n
K Ta K 60.469(23) 10_555 -9_556 n
K Ta K 179.9802 10_555 -10_556 n
K Ta K 60.469(23) 10_555 -11_556 n
K Ta K 142.6(6) 10_555 -12_556 n
K Ta O2 131.55(17) 10_555 101_555 n
K Ta O2 41.44(15) 10_555 108_443 n
K Ta O2 101.56(28) 10_555 122_434 n
K Ta O2 48.45(17) 10_555 -101_544 n
K Ta O2 138.56(15) 10_555 -108_545 n
K Ta O2 78.44(28) 10_555 -122_554 n
K Ta K 82.3(5) 11_555 12_555 n
K Ta K 142.6(6) 11_555 -7_556 n
K Ta K 23.8(6) 11_555 -8_556 n
K Ta K 60.469(23) 11_555 -9_556 n
K Ta K 60.469(23) 11_555 -10_556 n
K Ta K 179.9802 11_555 -11_556 n
K Ta K 97.7(5) 11_555 -12_556 n
K Ta O2 41.44(15) 11_555 101_555 n
K Ta O2 101.56(28) 11_555 108_443 n
K Ta O2 131.55(17) 11_555 122_434 n
K Ta O2 138.56(15) 11_555 -101_544 n
K Ta O2 78.44(28) 11_555 -108_545 n
K Ta O2 48.45(17) 11_555 -122_554 n
K Ta K 60.469(23) 12_555 -7_556 n
K Ta K 60.469(23) 12_555 -8_556 n
K Ta K 23.8(6) 12_555 -9_556 n
K Ta K 142.6(6) 12_555 -10_556 n
K Ta K 97.7(5) 12_555 -11_556 n
K Ta K 179.9802 12_555 -12_556 n
K Ta O2 101.56(28) 12_555 101_555 n
K Ta O2 41.44(15) 12_555 108_443 n
K Ta O2 131.55(17) 12_555 122_434 n
K Ta O2 78.44(28) 12_555 -101_544 n
K Ta O2 138.56(15) 12_555 -108_545 n
K Ta O2 48.45(17) 12_555 -122_554 n
K Ta K 119.531(23) -7_556 -8_556 n
K Ta K 82.3(5) -7_556 -9_556 n
K Ta K 156.2(6) -7_556 -10_556 n
K Ta K 37.4(6) -7_556 -11_556 n
K Ta K 119.531(23) -7_556 -12_556 n
K Ta O2 138.56(15) -7_555 101_555 n
K Ta O2 48.45(17) -7_555 108_443 n
K Ta O2 78.44(28) -7_555 122_434 n
K Ta O2 41.44(15) -7_555 -101_544 n
K Ta O2 131.55(17) -7_555 -108_545 n
K Ta O2 101.56(28) -7_555 -122_554 n
K Ta K 37.4(6) -8_556 -9_556 n
K Ta K 82.3(5) -8_556 -10_556 n
K Ta K 156.2(6) -8_556 -11_556 n
K Ta K 119.531(23) -8_556 -12_556 n
K Ta O2 48.45(17) -8_555 101_555 n
K Ta O2 78.44(28) -8_555 108_443 n
K Ta O2 138.56(15) -8_555 122_434 n
K Ta O2 131.55(17) -8_555 -101_544 n
K Ta O2 101.56(28) -8_555 -108_545 n
K Ta O2 41.44(15) -8_555 -122_554 n
K Ta K 119.531(23) -9_556 -10_556 n
K Ta K 119.531(23) -9_556 -11_556 n
K Ta K 156.2(6) -9_556 -12_556 n
K Ta O2 78.44(28) -9_555 101_555 n
K Ta O2 48.45(17) -9_555 108_443 n
K Ta O2 138.56(15) -9_555 122_434 n
K Ta O2 101.56(28) -9_555 -101_544 n
K Ta O2 131.55(17) -9_555 -108_545 n
K Ta O2 41.44(15) -9_555 -122_554 n
K Ta K 119.531(23) -10_556 -11_556 n
K Ta K 37.4(6) -10_556 -12_556 n
K Ta O2 48.45(17) -10_555 101_555 n
K Ta O2 138.56(15) -10_555 108_443 n
K Ta O2 78.44(28) -10_555 122_434 n
K Ta O2 131.55(17) -10_555 -101_544 n
K Ta O2 41.44(15) -10_555 -108_545 n
K Ta O2 101.56(28) -10_555 -122_554 n
K Ta K 82.3(5) -11_556 -12_556 n
K Ta O2 138.56(15) -11_555 101_555 n
K Ta O2 78.44(28) -11_555 108_443 n
K Ta O2 48.45(17) -11_555 122_434 n
K Ta O2 41.44(15) -11_555 -101_544 n
K Ta O2 101.56(28) -11_555 -108_545 n
K Ta O2 131.55(17) -11_555 -122_554 n
K Ta O2 78.44(28) -12_555 101_555 n
K Ta O2 138.56(15) -12_555 108_443 n
K Ta O2 48.45(17) -12_555 122_434 n
K Ta O2 101.56(28) -12_555 -101_544 n
K Ta O2 41.44(15) -12_555 -108_545 n
K Ta O2 131.55(17) -12_555 -122_554 n
O2 Ta O2 92.44(24) 101_555 108_443 n
O2 Ta O2 92.44(24) 101_555 122_434 n
O2 Ta O2 179.9802 101_555 -101_544 n
O2 Ta O2 87.56(24) 101_555 -108_545 n
O2 Ta O2 87.56(24) 101_555 -122_554 n
O2 Ta O2 92.44(24) 108_443 122_434 n
O2 Ta O2 87.56(24) 108_443 -101_544 n
O2 Ta O2 180.0 108_443 -108_545 n
O2 Ta O2 87.56(24) 108_443 -122_554 n
O2 Ta O2 87.56(24) 122_434 -101_544 n
O2 Ta O2 87.56(24) 122_434 -108_545 n
O2 Ta O2 180.0 122_434 -122_554 n
O2 Ta O2 92.44(24) -101_544 -108_545 n
O2 Ta O2 92.44(24) -101_544 -122_554 n
O2 Ta O2 92.44(24) -108_545 -122_554 n
K O2 K 119.6(7) 4_555 6_555 n
K O2 K 87.11(20) 4_555 107_434 n
K O2 K 32.5(8) 4_555 111_434 n
K O2 Gd 15.5(4) 4_555 4_555 n
K O2 Gd 104.1(4) 4_555 6_555 n
K O2 Ta 100.49(13) 4_555 -5_465 n
K O2 Ta 100.49(13) 4_555 101_544 n
K O2 K 32.5(8) 6_555 107_434 n
K O2 K 87.11(20) 6_555 111_434 n
K O2 Gd 104.1(4) 6_555 4_555 n
K O2 Gd 15.5(4) 6_555 6_555 n
K O2 Ta 100.49(13) 6_555 -5_465 n
K O2 Ta 100.49(13) 6_555 101_544 n
K O2 K 54.6(9) 107_434 111_434 n
K O2 Gd 71.6(5) 107_533 4_555 n
K O2 Gd 17.0(4) 107_533 6_555 n
K O2 Ta 108.76(15) 107_443 -5_465 n
K O2 Ta 108.76(15) 107_443 101_544 n
K O2 Gd 17.0(4) 111_533 4_555 n
K O2 Gd 71.6(5) 111_533 6_555 n
K O2 Ta 108.76(15) 111_443 -5_465 n
K O2 Ta 108.76(15) 111_443 101_544 n
Gd O2 Gd 88.53(20) 4_555 6_555 n
Gd O2 Ta 105.02(10) 4_555 -5_465 n
Gd O2 Ta 105.02(10) 4_555 101_544 n
Gd O2 Ta 105.02(10) 6_555 -5_465 n
Gd O2 Ta 105.02(10) 6_555 101_544 n
Ta O2 Ta 137.6(4) -5_465 101_544 n
K O3 K 109.4712(8) 1_555 4_555 n
K O3 K 109.4712(4) 1_555 5_555 n
K O3 K 109.4712(4) 1_555 6_555 n
K O3 K 0.0 1_555 -1_555 n
K O3 K 109.4712(4) 1_555 107_434 n
K O3 K 109.4712(8) 1_555 111_434 n
K O3 K 109.4712(4) 1_555 -105_445 n
K O3 Gd 0.0 1_555 1_555 n
K O3 Gd 109.4712(8) 1_555 4_555 n
K O3 Gd 109.4712(4) 1_555 5_555 n
K O3 Gd 109.4712(4) 1_555 6_555 n
K O3 K 109.4712(4) 4_555 5_555 n
K O3 K 109.4712(4) 4_555 6_555 n
K O3 K 109.4712(8) 4_555 -1_555 n
K O3 K 109.4712(4) 4_555 107_434 n
K O3 K 0.0198 4_555 111_434 n
K O3 K 109.4712(4) 4_555 -105_445 n
K O3 Gd 109.4712(8) 4_555 1_555 n
K O3 Gd 0.0 4_555 4_555 n
K O3 Gd 109.4712(4) 4_555 5_555 n
K O3 Gd 109.4712(4) 4_555 6_555 n
K O3 K 109.4712(8) 5_555 6_555 n
K O3 K 109.4712(4) 5_555 -1_555 n
K O3 K 109.4712(8) 5_555 107_434 n
K O3 K 109.4712(4) 5_555 111_434 n
K O3 K 0.0 5_555 -105_445 n
K O3 Gd 109.4712(4) 5_555 1_555 n
K O3 Gd 109.4712(4) 5_555 4_555 n
K O3 Gd 0.0 5_555 5_555 n
K O3 Gd 109.4712(8) 5_555 6_555 n
K O3 K 109.4712(4) 6_555 -1_555 n
K O3 K 0.0198 6_555 107_434 n
K O3 K 109.4712(4) 6_555 111_434 n
K O3 K 109.4712(8) 6_555 -105_445 n
K O3 Gd 109.4712(4) 6_555 1_555 n
K O3 Gd 109.4712(4) 6_555 4_555 n
K O3 Gd 109.4712(8) 6_555 5_555 n
K O3 Gd 0.0 6_555 6_555 n
K O3 K 109.4712(4) -1_555 107_434 n
K O3 K 109.4712(8) -1_555 111_434 n
K O3 K 109.4712(4) -1_555 -105_445 n
K O3 Gd 0.0 -1_555 1_555 n
K O3 Gd 109.4712(8) -1_555 4_555 n
K O3 Gd 109.4712(4) -1_555 5_555 n
K O3 Gd 109.4712(4) -1_555 6_555 n
K O3 K 109.4712(4) 107_434 111_434 n
K O3 K 109.4712(8) 107_434 -105_445 n
K O3 Gd 109.4712(4) 107_533 1_555 n
K O3 Gd 109.4712(4) 107_533 4_555 n
K O3 Gd 109.4712(8) 107_533 5_555 n
K O3 Gd 0.0 107_533 6_555 n
K O3 K 109.4712(4) 111_434 -105_445 n
K O3 Gd 109.4712(8) 111_533 1_555 n
K O3 Gd 0.0 111_533 4_555 n
K O3 Gd 109.4712(4) 111_533 5_555 n
K O3 Gd 109.4712(4) 111_533 6_555 n
K O3 Gd 109.4712(4) -105_544 1_555 n
K O3 Gd 109.4712(4) -105_544 4_555 n
K O3 Gd 0.0 -105_544 5_555 n
K O3 Gd 109.4712(8) -105_544 6_555 n
Gd O3 Gd 109.4712(8) 1_555 4_555 n
Gd O3 Gd 109.4712(4) 1_555 5_555 n
Gd O3 Gd 109.4712(4) 1_555 6_555 n
Gd O3 Gd 109.4712(4) 4_555 5_555 n
Gd O3 Gd 109.4712(4) 4_555 6_555 n
Gd O3 Gd 109.4712(8) 5_555 6_555 n
loop_
_geom_bond_atom_site_label_1
_geom_bond_atom_site_label_2
_geom_bond_distance
_geom_bond_site_symmetry_2
_geom_bond_publ_flag
K K 3.835(5) 4_555 n
K K 3.835(5) 5_555 n
K K 3.835(5) 6_555 n
K K 1.57(4) -1_555 n
K K 5.010(33) -4_445 n
K K 5.010(33) -5_544 n
K K 5.010(33) -6_454 n
K K 3.835(5) 105_544 n
K K 2.442(33) 107_555 n
K K 2.442(33) 111_555 n
K K 2.442(33) -105_544 n
K K 3.835(5) -107_443 n
K K 3.835(5) -111_434 n
K Gd 0.786(20) 1_555 n
K Gd 3.117(14) 4_555 n
K Gd 3.117(14) 5_555 n
K Gd 3.117(14) 6_555 n
K Gd 4.392(17) -4_445 n
K Gd 4.392(17) -5_544 n
K Gd 4.392(17) -6_454 n
K Ta 3.808(4) 7_545 n
K Ta 3.808(4) 8_554 n
K Ta 3.808(4) 9_455 n
K Ta 3.808(4) 10_545 n
K Ta 3.808(4) 11_554 n
K Ta 3.808(4) 12_455 n
K O2 2.898(9) 105_544 n
K O2 2.662(7) 111_555 n
K O2 2.898(9) 117_544 n
K O2 2.662(7) 119_555 n
K O2 2.898(9) 218_454 n
K O2 2.662(7) 220_555 n
K O3 1.495(20) 1_555 n
K O3 3.068(20) -1_555 n
Gd K 0.786(20) 1_555 n
Gd K 4.392(17) 4_555 n
Gd K 4.392(17) 5_555 n
Gd K 4.392(17) 6_555 n
Gd K 0.786(20) -1_555 n
Gd K 4.392(17) -4_445 n
Gd K 4.392(17) -5_544 n
Gd K 4.392(17) -6_454 n
Gd K 3.117(14) 105_544 n
Gd K 3.117(14) 107_555 n
Gd K 3.117(14) 111_555 n
Gd K 3.117(14) -105_544 n
Gd K 3.117(14) -107_443 n
Gd K 3.117(14) -111_434 n
Gd Gd 3.72586(4) 4_555 n
Gd Gd 3.725860(30) 5_555 n
Gd Gd 3.725860(30) 6_555 n
Gd Gd 3.72586(4) -4_445 n
Gd Gd 3.725860(30) -5_544 n
Gd Gd 3.725860(30) -6_454 n
Gd O2 2.669(5) 105_544 n
Gd O2 2.669(5) 111_555 n
Gd O2 2.669(5) 117_544 n
Gd O2 2.669(5) 119_555 n
Gd O2 2.669(5) 218_454 n
Gd O2 2.669(5) 220_555 n
Gd O3 2.281620(20) 1_555 n
Gd O3 2.281620(20) -1_555 n
Ta K 3.808(4) 7_555 n
Ta K 3.808(4) 8_555 n
Ta K 3.808(4) 9_555 n
Ta K 3.808(4) 10_555 n
Ta K 3.808(4) 11_555 n
Ta K 3.808(4) 12_555 n
Ta K 3.808(4) -7_555 n
Ta K 3.808(4) -8_555 n
Ta K 3.808(4) -9_555 n
Ta K 3.808(4) -10_555 n
Ta K 3.808(4) -11_555 n
Ta K 3.808(4) -12_555 n
Ta O2 1.9984(24) 101_555 n
Ta O2 1.9984(24) 108_555 n
Ta O2 1.9984(24) 122_555 n
Ta O2 1.9984(24) -101_644 n
Ta O2 1.9984(24) -108_545 n
Ta O2 1.9984(24) -122_554 n
O2 K 2.898(9) 4_555 n
O2 K 2.898(9) 6_555 n
O2 K 2.662(7) 107_555 n
O2 K 2.662(7) 111_555 n
O2 Gd 2.669(5) 4_555 n
O2 Gd 2.669(5) 6_555 n
O2 Ta 1.9984(24) -5_555 n
O2 Ta 1.9984(24) 101_544 n
O3 K 1.495(20) 1_555 n
O3 K 3.068(20) 4_555 n
O3 K 3.068(20) 5_555 n
O3 K 3.068(20) 6_555 n
O3 K 3.068(20) -1_555 n
O3 K 1.495(20) 107_555 n
O3 K 1.495(20) 111_555 n
O3 K 1.495(20) -105_544 n
O3 Gd 2.281620(20) 1_555 n
O3 Gd 2.281620(20) 4_555 n
O3 Gd 2.281620(20) 5_555 n
O3 Gd 2.281620(20) 6_555 n
loop_
_pd_block_diffractogram_id
2009-06-22T17:52|KGDTA2O7-SI_H_01||
loop_
_pd_phase_id
_pd_phase_block_id
_pd_phase_mass_%
_pd_proc_ls_profile_function
_pd_proc_ls_peak_cutoff
1 2009-06-22T17:52|KGDTA2O7-SI_phase1||| 90.76(4)
;
 CW Profile function number 2 with  18 terms
 Profile coefficients for Simpson's rule integration of pseudovoigt function
 C.J. Howard (1982). J. Appl. Cryst.,15,615-620.
 P. Thompson, D.E. Cox & J.B. Hastings (1987). J. Appl. Cryst.,20,79-83.
 Peak tails are ignored  where the intensity is below 0.0002 times the peak
   Aniso. broadening axis   0.0   0.0   1.0
;
0.00020
