#------------------------------------------------------------------------------
#$Date: 2016-02-16 22:30:59 +0200 (Tue, 16 Feb 2016) $
#$Revision: 176467 $
#$URL: svn://www.crystallography.net/cod/cif/4/11/39/4113918.cif $
#------------------------------------------------------------------------------
#
# This file is available in the Crystallography Open Database (COD),
# http://www.crystallography.net/
#
# All data on this site have been placed in the public domain by the
# contributors.
#
data_4113918
loop_
_publ_author_name
'Patrick M. Woodward'
'Emmanuelle Suard'
'Pavel Karen'
_publ_section_title
;
 Structural Tuning of Charge, Orbital, and Spin Ordering in Double-Cell
 Perovskite Series between NdBaFe2O5 and HoBaFe2O5
;
_journal_name_full               'Journal of the American Chemical Society'
_journal_page_first              8889
_journal_page_last               8899
_journal_paper_doi               10.1021/ja034813+
_journal_volume                  125
_journal_year                    2003
_chemical_formula_sum            'Ba Fe2 Ho O5'
_space_group_IT_number           51
_symmetry_cell_setting           orthorhombic
_symmetry_space_group_name_Hall  '-P 2a 2a'
_symmetry_space_group_name_H-M   'P m m a'
_cell_angle_alpha                90.0
_cell_angle_beta                 90.0
_cell_angle_gamma                90.0
_cell_formula_units_Z            2
_cell_length_a                   8.03183(8)
_cell_length_b                   3.835890(33)
_cell_length_c                   7.52198(9)
_cell_volume                     231.746(4)
_pd_block_id                     |PHASE_1||
_pd_phase_name                   'HoBaFe2O5 Nuclear Structure'
_cod_data_source_file            ja0348132Bsi20030304_041321_01.cif
_cod_data_source_block           HO_2K_phase_1
_cod_original_formula_sum        'Ho Ba Fe2 O5'
_cod_database_code               4113918
loop_
_symmetry_equiv_pos_as_xyz
+x,+y,+z
-x+1/2,+y,+z
+x,-y,+z
-x+1/2,-y,+z
-x,-y,-z
+x+1/2,-y,-z
-x,+y,-z
+x+1/2,+y,-z
loop_
_atom_site_label
_atom_site_fract_x
_atom_site_fract_y
_atom_site_fract_z
_atom_site_occupancy
_atom_site_thermal_displace_type
_atom_site_U_iso_or_equiv
_atom_site_symmetry_multiplicity
Ho 0.0 0.0 0.5 1.0 Uiso -0.00042(32) 2
Ba 0.0 0.0 0.0 1.0 Uiso 0.0030(5) 2
Fe1 0.25 0.5 0.2548(4) 1.0 Uiso 0.00270(23) 2
Fe2 0.75 0.5 0.2679(4) 1.0 Uiso 0.00270(23) 2
O1 0.25 0.5 0.0019(11) 1.0 Uiso 0.0060(5) 2
O2a 0.25 0.0 0.3128(7) 1.0 Uiso 0.00380(31) 2
O2b 0.75 0.0 0.3210(8) 1.0 Uiso 0.00380(31) 2
O3a 0.0105(5) 0.5 0.31152(19) 1.0 Uiso 0.0050(4) 4
loop_
_atom_type_symbol
_atom_type_number_in_cell
HO 2.0
BA 2.0
FE 4.0
O 10.0
