#------------------------------------------------------------------------------
#$Date: 2016-03-22 12:44:20 +0200 (Tue, 22 Mar 2016) $
#$Revision: 178961 $
#$URL: svn://www.crystallography.net/cod/cif/4/11/90/4119066.cif $
#------------------------------------------------------------------------------
#
# This file is available in the Crystallography Open Database (COD),
# http://www.crystallography.net/
#
# All data on this site have been placed in the public domain by the
# contributors.
#
data_4119066
loop_
_publ_author_name
'Kim, Y.'
'Seff, K.'
_publ_section_title
;
 Structure of a very small piece of silver metal. The octahedral Ag6
 molecule. Two crystal structures of partially decomposed
 vacuum-dehydrated fully Ag+ -exchanged zeolite A
;
_journal_name_full               'Journal of the American Chemical Society'
_journal_page_first              7055
_journal_page_last               7057
_journal_paper_doi               10.1021/ja00463a047
_journal_volume                  99
_journal_year                    1977
_chemical_formula_sum            'Ag12 Al12 O48 Si12'
_chemical_name_systematic        'Ag12 (Si12 Al12 O48)'
_space_group_IT_number           221
_symmetry_space_group_name_Hall  '-P 4 2 3'
_symmetry_space_group_name_H-M   'P m -3 m'
_cell_angle_alpha                90
_cell_angle_beta                 90
_cell_angle_gamma                90
_cell_formula_units_Z            1
_cell_length_a                   12.295
_cell_length_b                   12.295
_cell_length_c                   12.295
_cell_volume                     1858.599
_citation_journal_id_ASTM        JACSAT
_cod_data_source_file            silver1-2_643.cif
_cod_data_source_block           Ag12Al12O48Si12
_cod_database_code               4119066
loop_
_symmetry_equiv_pos_as_xyz
x,y,z
-y,x,z
-x,-y,z
y,-x,z
x,-y,-z
y,x,-z
-x,y,-z
-y,-x,-z
z,x,y
-x,z,y
-z,-x,y
x,-z,y
z,-x,-y
x,z,-y
-z,x,-y
-x,-z,-y
y,z,x
y,-z,-x
z,y,-x
-y,z,-x
-z,-y,-x
-y,-z,x
z,-y,x
-z,y,x
-x,-y,-z
y,-x,-z
x,y,-z
-y,x,-z
-x,y,z
-y,-x,z
x,-y,z
y,x,z
-z,-x,-y
x,-z,-y
z,x,-y
-x,z,-y
-z,x,y
-x,-z,y
z,-x,y
x,z,y
-y,-z,-x
-y,z,x
-z,-y,x
y,-z,x
z,y,x
y,z,-x
-z,y,-x
z,-y,-x
loop_
_atom_site_label
_atom_site_type_symbol
_atom_site_fract_x
_atom_site_fract_y
_atom_site_fract_z
_atom_site_occupancy
_atom_site_U_iso_or_equiv
O3 O-2 0.1097 0.1097 0.3334 1 0.0
Ag3 Ag+1 0.0242 0.4356 0.4359 0.0208 0.0
O2 O-2 0 0.2952 0.2952 1 0.0
Al1 Al+3 0 0.1824 0.3691 0.5 0.0
Si1 Si+4 0 0.1824 0.3691 0.5 0.0
Ag1 Ag+1 0.1907 0.1907 0.1907 1 0.0
O1 O-2 0 0.208 0.5 1 0.0
Ag2 Ag+1 0 0 0.1684 0.5667 0.0
