#------------------------------------------------------------------------------
#$Date: 2016-03-22 12:44:20 +0200 (Tue, 22 Mar 2016) $
#$Revision: 178961 $
#$URL: svn://www.crystallography.net/cod/cif/4/11/90/4119069.cif $
#------------------------------------------------------------------------------
#
# This file is available in the Crystallography Open Database (COD),
# http://www.crystallography.net/
#
# All data on this site have been placed in the public domain by the
# contributors.
#
data_4119069
loop_
_publ_author_name
'Kim, Y.'
'Seff, K.'
_publ_section_title
;
 The octahedral hexasilver molecule. Seven crystal structures of variously
 vacuum-dehydrated fully Ag+ -exchanged zeolite A
;
_journal_name_full               'Journal of the American Chemical Society'
_journal_page_first              6989
_journal_page_last               6997
_journal_paper_doi               10.1021/ja00490a035
_journal_volume                  100
_journal_year                    1978
_chemical_formula_sum            'Ag9.26 Al12 O48 Si12'
_chemical_name_systematic        'Ag9.26 (Si12 Al12 O48)'
_space_group_IT_number           221
_symmetry_space_group_name_Hall  '-P 4 2 3'
_symmetry_space_group_name_H-M   'P m -3 m'
_cell_angle_alpha                90
_cell_angle_beta                 90
_cell_angle_gamma                90
_cell_formula_units_Z            1
_cell_length_a                   12.148
_cell_length_b                   12.148
_cell_length_c                   12.148
_cell_volume                     1792.728
_citation_journal_id_ASTM        JACSAT
_cod_data_source_file            silver3-x_309.cif
_cod_data_source_block           Ag9.26Al12O48Si12
_cod_database_code               4119069
loop_
_symmetry_equiv_pos_as_xyz
x,y,z
-y,x,z
-x,-y,z
y,-x,z
x,-y,-z
y,x,-z
-x,y,-z
-y,-x,-z
z,x,y
-x,z,y
-z,-x,y
x,-z,y
z,-x,-y
x,z,-y
-z,x,-y
-x,-z,-y
y,z,x
y,-z,-x
z,y,-x
-y,z,-x
-z,-y,-x
-y,-z,x
z,-y,x
-z,y,x
-x,-y,-z
y,-x,-z
x,y,-z
-y,x,-z
-x,y,z
-y,-x,z
x,-y,z
y,x,z
-z,-x,-y
x,-z,-y
z,x,-y
-x,z,-y
-z,x,y
-x,-z,y
z,-x,y
x,z,y
-y,-z,-x
-y,z,x
-z,-y,x
y,-z,x
z,y,x
y,z,-x
-z,y,-x
z,-y,-x
loop_
_atom_site_label
_atom_site_type_symbol
_atom_site_fract_x
_atom_site_fract_y
_atom_site_fract_z
_atom_site_occupancy
_atom_site_U_iso_or_equiv
O1 O-2 0 0.199 0.5 1 0.0
O2 O-2 0 0.2924 0.2924 1 0.0
Si1 Si+4 0 0.1834 0.3695 0.5 0.0
Ag2 Ag+1 0 0 0.1652 0.41 0.0
O3 O-2 0.1074 0.1074 0.3288 1 0.0
Al1 Al+3 0 0.1834 0.3695 0.5 0.0
Ag1 Ag+1 0.1824 0.1824 0.1824 0.85 0.0
