#------------------------------------------------------------------------------
#$Date: 2015-07-14 01:18:19 +0300 (Tue, 14 Jul 2015) $
#$Revision: 151233 $
#$URL: svn://www.crystallography.net/cod/cif/4/12/40/4124093.cif $
#------------------------------------------------------------------------------
#
# This file is available in the Crystallography Open Database (COD),
# http://www.crystallography.net/
#
# All data on this site have been placed in the public domain by the
# contributors.
#
data_4124093
loop_
_publ_author_name
'Lee Yongjae'
'Kim Sun Jin'
'Celestian, A.J.'
'Bull, I.'
'Parise, J.B.'
'Kao Chichang'
'Vogt, T.'
_publ_section_title
;
 Dehydration-induced water disordering in a synthetic potassium
 gallosilicate natrolite
;
_journal_name_full               'Journal of the American Chemical Society'
_journal_page_first              13744
_journal_page_last               13748
_journal_volume                  129
_journal_year                    2007
_chemical_formula_sum            'Ga8.2 K7.36 O40 Si11.8'
_chemical_name_systematic        'K7.36 Ga8.2 Si11.8 O40'
_space_group_IT_number           122
_symmetry_space_group_name_Hall  'I -4 2bw'
_symmetry_space_group_name_H-M   'I -4 2 d'
_cell_angle_alpha                90
_cell_angle_beta                 90
_cell_angle_gamma                90
_cell_formula_units_Z            1
_cell_length_a                   12.7372
_cell_length_b                   12.7372
_cell_length_c                   6.563
_cell_volume                     1064.757
_citation_journal_id_ASTM        JACSAT
_cod_data_source_file            LeeYongjae_JACSAT_2007_1460.cif
_cod_data_source_block           Ga8.2K7.36O40Si11.8
_cod_database_code               4124093
loop_
_symmetry_equiv_pos_as_xyz
x,y,z
y,-x,-z
-x,-y,z
-y,x,-z
x,-y+1/2,-z+1/4
-y+1/2,-x,z+3/4
-x,y+1/2,-z+1/4
y+1/2,x,z+3/4
x+1/2,y+1/2,z+1/2
y+1/2,-x+1/2,-z+1/2
-x+1/2,-y+1/2,z+1/2
-y+1/2,x+1/2,-z+1/2
x+1/2,-y+1,-z+3/4
-y+1,-x+1/2,z+5/4
-x+1/2,y+1,-z+3/4
y+1,x+1/2,z+5/4
loop_
_atom_site_label
_atom_site_type_symbol
_atom_site_fract_x
_atom_site_fract_y
_atom_site_fract_z
_atom_site_occupancy
_atom_site_U_iso_or_equiv
Si2 Si+4 0.9389 0.1337 0.6207 0.59 0.0
K3 K+1 -0.035 0.25 0.125 0.24 0.0
Si1 Si+4 0 0 0 0.59 0.0
O1 O-2 0.627 0.25 0.125 1 0.0
O3 O-2 -0.006 0.109 0.851 1 0.0
Ga2 Ga+3 0.9389 0.1337 0.6207 0.41 0.0
O2 O-2 0.035 0.144 0.441 1 0.0
K1 K+1 -0.229 0.25 0.125 0.07 0.0
K2 K+1 0.147 0.25 0.125 0.61 0.0
Ga1 Ga+3 0 0 0 0.41 0.0
