#------------------------------------------------------------------------------
#$Date: 2015-09-06 16:10:00 +0300 (Sun, 06 Sep 2015) $
#$Revision: 154861 $
#$URL: svn://www.crystallography.net/cod/cif/4/12/44/4124430.cif $
#------------------------------------------------------------------------------
#
# This file is available in the Crystallography Open Database (COD),
# http://www.crystallography.net/
#
# All data on this site have been placed in the public domain by the
# contributors.
#
data_4124430
loop_
_publ_author_name
'Firor, R.L.'
'Seff, K.'
_publ_section_title
;
 Near-zero-coordinate thallium(I). The crystal structures of hydrated and
 dehydrated zeolite A fully exchanged with Tl O H
;
_journal_name_full               'Journal of the American Chemical Society'
_journal_page_first              4039
_journal_page_last               4044
_journal_volume                  99
_journal_year                    1977
_chemical_formula_sum            'Al12 O48 Si12 Tl12'
_chemical_name_systematic        'Tl12 (Al12 Si12 O48)'
_space_group_IT_number           221
_symmetry_space_group_name_Hall  '-P 4 2 3'
_symmetry_space_group_name_H-M   'P m -3 m'
_cell_angle_alpha                90
_cell_angle_beta                 90
_cell_angle_gamma                90
_cell_formula_units_Z            1
_cell_length_a                   12.18
_cell_length_b                   12.18
_cell_length_c                   12.18
_cell_volume                     1806.932
_citation_journal_id_ASTM        JACSAT
_cod_data_source_file            Firor_JACSAT_1977_375.cif
_cod_data_source_block           Al12O48Si12Tl12
_cod_database_code               4124430
loop_
_symmetry_equiv_pos_as_xyz
x,y,z
-y,x,z
-x,-y,z
y,-x,z
x,-y,-z
y,x,-z
-x,y,-z
-y,-x,-z
z,x,y
-x,z,y
-z,-x,y
x,-z,y
z,-x,-y
x,z,-y
-z,x,-y
-x,-z,-y
y,z,x
y,-z,-x
z,y,-x
-y,z,-x
-z,-y,-x
-y,-z,x
z,-y,x
-z,y,x
-x,-y,-z
y,-x,-z
x,y,-z
-y,x,-z
-x,y,z
-y,-x,z
x,-y,z
y,x,z
-z,-x,-y
x,-z,-y
z,x,-y
-x,z,-y
-z,x,y
-x,-z,y
z,-x,y
x,z,y
-y,-z,-x
-y,z,x
-z,-y,x
y,-z,x
z,y,x
y,z,-x
-z,y,-x
z,-y,-x
loop_
_atom_site_label
_atom_site_type_symbol
_atom_site_fract_x
_atom_site_fract_y
_atom_site_fract_z
_atom_site_occupancy
_atom_site_U_iso_or_equiv
O2 O-2 0 0.3028 0.3028 1 0.0
Si1 Si+4 0 0.1824 0.367 0.5 0.0
Tl4 Tl+1 0.259 0.337 0.337 0.0417 0.0
Tl2 Tl+1 0 0.4601 0.4601 0.25 0.0
Tl3 Tl+1 0.1044 0.1044 0.1044 0.25 0.0
Al1 Al+3 0 0.1824 0.367 0.5 0.0
O3 O-2 0.1145 0.1145 0.3256 1 0.0
Tl1 Tl+1 0.2589 0.2589 0.2589 0.75 0.0
O1 O-2 0 0.208 0.5 1 0.0
