#------------------------------------------------------------------------------
#$Date: 2015-09-06 22:42:36 +0300 (Sun, 06 Sep 2015) $
#$Revision: 155049 $
#$URL: svn://www.crystallography.net/cod/cif/4/12/44/4124438.cif $
#------------------------------------------------------------------------------
#
# This file is available in the Crystallography Open Database (COD),
# http://www.crystallography.net/
#
# All data on this site have been placed in the public domain by the
# contributors.
#
data_4124438
loop_
_publ_author_name
'Heo, N.-H.'
'Seff, K.'
_publ_section_title
;
 Reaction of dehydrated Na12-A with cesium. Synthesis and crystal
 structure of fully dehydrated, fully Cs+ -exchanged Zeolite A
;
_journal_name_full               'Journal of the American Chemical Society'
_journal_page_first              7986
_journal_page_last               7992
_journal_volume                  109
_journal_year                    1987
_chemical_formula_sum            'Al12 Cs9.08 Na3.52 O48 Si12'
_chemical_name_systematic        'Cs9.08 Na3.52 (Al12 Si12 O48)'
_space_group_IT_number           221
_symmetry_space_group_name_Hall  '-P 4 2 3'
_symmetry_space_group_name_H-M   'P m -3 m'
_cell_angle_alpha                90
_cell_angle_beta                 90
_cell_angle_gamma                90
_cell_formula_units_Z            1
_cell_length_a                   12.252
_cell_length_b                   12.252
_cell_length_c                   12.252
_cell_volume                     1839.166
_citation_journal_id_ASTM        JACSAT
_cod_data_source_file            Heo_JACSAT_1987_1552.cif
_cod_data_source_block           Al12Cs9.08Na3.52O48Si12
_cod_database_code               4124438
loop_
_symmetry_equiv_pos_as_xyz
x,y,z
-y,x,z
-x,-y,z
y,-x,z
x,-y,-z
y,x,-z
-x,y,-z
-y,-x,-z
z,x,y
-x,z,y
-z,-x,y
x,-z,y
z,-x,-y
x,z,-y
-z,x,-y
-x,-z,-y
y,z,x
y,-z,-x
z,y,-x
-y,z,-x
-z,-y,-x
-y,-z,x
z,-y,x
-z,y,x
-x,-y,-z
y,-x,-z
x,y,-z
-y,x,-z
-x,y,z
-y,-x,z
x,-y,z
y,x,z
-z,-x,-y
x,-z,-y
z,x,-y
-x,z,-y
-z,x,y
-x,-z,y
z,-x,y
x,z,y
-y,-z,-x
-y,z,x
-z,-y,x
y,-z,x
z,y,x
y,z,-x
-z,y,-x
z,-y,-x
loop_
_atom_site_label
_atom_site_type_symbol
_atom_site_fract_x
_atom_site_fract_y
_atom_site_fract_z
_atom_site_occupancy
_atom_site_U_iso_or_equiv
Na1 Na+1 0.2153 0.2153 0.2153 0.44 0.0
Cs2 Cs 0.2814 0.2814 0.2814 0.5 0.0
Al1 Al+3 0 0.183 0.3709 0.5 0.0
Cs3 Cs+1 0.0913 0.0913 0.0913 0.2 0.0
O2 O-2 0 0.296 0.296 1 0.0
O3 O-2 0.1129 0.1129 0.3385 1 0.0
O1 O-2 0 0.222 0.5 1 0.0
Si1 Si+4 0 0.183 0.3709 0.5 0.0
Cs4 Cs+1 0.334 0.334 0.462 0.02 0.0
Cs1 Cs+1 0 0.5 0.5 1 0.0
