#------------------------------------------------------------------------------
#$Date: 2015-09-06 16:10:39 +0300 (Sun, 06 Sep 2015) $
#$Revision: 154864 $
#$URL: svn://www.crystallography.net/cod/cif/4/12/44/4124433.cif $
#------------------------------------------------------------------------------
#
# This file is available in the Crystallography Open Database (COD),
# http://www.crystallography.net/
#
# All data on this site have been placed in the public domain by the
# contributors.
#
data_4124433
loop_
_publ_author_name
'Firor, R.L.'
'Seff, K.'
_publ_section_title
;
 Near zero coordinate Ca2+ and Sr2+ in zeolite A. Crystal structures of
 dehydrated Ca6-A and Sr6-A
;
_journal_name_full               'Journal of the American Chemical Society'
_journal_page_first              3091
_journal_page_last               3096
_journal_volume                  100
_journal_year                    1978
_chemical_formula_sum            'Al12 Ca6 O48 Si12'
_chemical_name_systematic        'Ca6 (Si12 Al12 O48)'
_space_group_IT_number           221
_symmetry_space_group_name_Hall  '-P 4 2 3'
_symmetry_space_group_name_H-M   'P m -3 m'
_cell_angle_alpha                90
_cell_angle_beta                 90
_cell_angle_gamma                90
_cell_formula_units_Z            1
_cell_length_a                   12.278
_cell_length_b                   12.278
_cell_length_c                   12.278
_cell_volume                     1850.900
_citation_journal_id_ASTM        JACSAT
_cod_data_source_file            Firor_JACSAT_1978_283.cif
_cod_data_source_block           Al12Ca6O48Si12
_cod_original_cell_volume        1850.9
_cod_database_code               4124433
loop_
_symmetry_equiv_pos_as_xyz
x,y,z
-y,x,z
-x,-y,z
y,-x,z
x,-y,-z
y,x,-z
-x,y,-z
-y,-x,-z
z,x,y
-x,z,y
-z,-x,y
x,-z,y
z,-x,-y
x,z,-y
-z,x,-y
-x,-z,-y
y,z,x
y,-z,-x
z,y,-x
-y,z,-x
-z,-y,-x
-y,-z,x
z,-y,x
-z,y,x
-x,-y,-z
y,-x,-z
x,y,-z
-y,x,-z
-x,y,z
-y,-x,z
x,-y,z
y,x,z
-z,-x,-y
x,-z,-y
z,x,-y
-x,z,-y
-z,x,y
-x,-z,y
z,-x,y
x,z,y
-y,-z,-x
-y,z,x
-z,-y,x
y,-z,x
z,y,x
y,z,-x
-z,y,-x
z,-y,-x
loop_
_atom_site_label
_atom_site_type_symbol
_atom_site_fract_x
_atom_site_fract_y
_atom_site_fract_z
_atom_site_occupancy
_atom_site_U_iso_or_equiv
Ca1 Ca+2 0.2113 0.2113 0.2113 0.375 0.0
O1 O-2 0 0.219 0.5 1 0.0
Ca4 Ca+2 0 0.4683 0.4683 0.0833 0.0
O2 O-2 0 0.2882 0.2882 1 0.0
Ca3 Ca+2 0.1578 0.1578 0.1578 0.125 0.0
Si1 Si+4 0 0.1828 0.3715 0.5 0.0
O3 O-2 0.1116 0.1116 0.3383 1 0.0
Al1 Al+3 0 0.1828 0.3715 0.5 0.0
Ca2 Ca+2 0.1908 0.1908 0.1908 0.125 0.0
