#------------------------------------------------------------------------------
#$Date: 2016-02-13 21:28:24 +0200 (Sat, 13 Feb 2016) $
#$Revision: 176429 $
#$URL: svn://www.crystallography.net/cod/cif/4/12/48/4124865.cif $
#------------------------------------------------------------------------------
#
# This file is available in the Crystallography Open Database (COD),
# http://www.crystallography.net/
#
# All data on this site have been placed in the public domain by the
# contributors.
#
data_4124865
loop_
_publ_author_name
'Wold, A.'
'Ward, R.'
_publ_section_title
;
 Perowskite-Type Oxides of Cobalt, Chromium and Vanadium with Some Rare
 EArth Elements
;
_journal_name_full               'Journal of the American Chemical Society'
_journal_page_first              1029
_journal_page_last               1030
_journal_volume                  76
_journal_year                    1954
_chemical_formula_sum            'Cr O3 Sm'
_chemical_name_systematic        'Sm Cr O3'
_space_group_IT_number           221
_symmetry_space_group_name_Hall  '-P 4 2 3'
_symmetry_space_group_name_H-M   'P m -3 m'
_cell_angle_alpha                90
_cell_angle_beta                 90
_cell_angle_gamma                90
_cell_formula_units_Z            1
_cell_length_a                   3.86
_cell_length_b                   3.86
_cell_length_c                   3.86
_cell_volume                     57.512
_citation_journal_id_ASTM        JACSAT
_cod_data_source_file            Wold_JACSAT_1954_1046.cif
_cod_data_source_block           Cr1O3Sm1
_cod_original_cell_volume        57.51245
_cod_original_formula_sum        'Cr1 O3 Sm1'
_cod_database_code               4124865
loop_
_symmetry_equiv_pos_as_xyz
x,y,z
-y,x,z
-x,-y,z
y,-x,z
x,-y,-z
y,x,-z
-x,y,-z
-y,-x,-z
z,x,y
-x,z,y
-z,-x,y
x,-z,y
z,-x,-y
x,z,-y
-z,x,-y
-x,-z,-y
y,z,x
y,-z,-x
z,y,-x
-y,z,-x
-z,-y,-x
-y,-z,x
z,-y,x
-z,y,x
-x,-y,-z
y,-x,-z
x,y,-z
-y,x,-z
-x,y,z
-y,-x,z
x,-y,z
y,x,z
-z,-x,-y
x,-z,-y
z,x,-y
-x,z,-y
-z,x,y
-x,-z,y
z,-x,y
x,z,y
-y,-z,-x
-y,z,x
-z,-y,x
y,-z,x
z,y,x
y,z,-x
-z,y,-x
z,-y,-x
loop_
_atom_site_label
_atom_site_type_symbol
_atom_site_fract_x
_atom_site_fract_y
_atom_site_fract_z
_atom_site_occupancy
_atom_site_U_iso_or_equiv
Cr1 Cr+3 0.5 0.5 0.5 1 0.0
Sm1 Sm+3 0 0 0 1 0.0
O1 O-2 0.5 0.5 0 1 0.0
