#------------------------------------------------------------------------------
#$Date: 2018-09-27 07:13:35 +0300 (Thu, 27 Sep 2018) $
#$Revision: 211196 $
#$URL: file:///home/coder/svn-repositories/cod/cif/4/12/47/4124776.cif $
#------------------------------------------------------------------------------
#
# This file is available in the Crystallography Open Database (COD),
# http://www.crystallography.net/
#
# All data on this site have been placed in the public domain by the
# contributors.
#
data_4124776
loop_
_publ_author_name
'Erchak, M.'
'Ward, R.'
'Fankuchen, I.'
_publ_section_title
;
 Reaction between Ferric Oxide and Barium Carbonate in the Solid Phase.
 Identification of Phases by X-Ray Diffraction
;
_journal_name_full               'Journal of the American Chemical Society'
_journal_page_first              2085
_journal_page_last               2093
_journal_volume                  68
_journal_year                    1946
_chemical_formula_sum            'Ba8 Fe8 O21'
_space_group_IT_number           225
_symmetry_space_group_name_Hall  '-F 4 2 3'
_symmetry_space_group_name_H-M   'F m -3 m'
_cell_angle_alpha                90
_cell_angle_beta                 90
_cell_angle_gamma                90
_cell_formula_units_Z            1
_cell_length_a                   8.05
_cell_length_b                   8.05
_cell_length_c                   8.05
_cell_volume                     521.660
_citation_journal_id_ASTM        JACSAT
_cod_data_source_file            Erchak_JACSAT_1946_1148.cif
_cod_data_source_block           Ba8Fe8O21
_cod_original_cell_volume        521.6602
_cod_database_code               4124776
loop_
_symmetry_equiv_pos_as_xyz
x,y,z
-y,x,z
-x,-y,z
y,-x,z
x,-y,-z
y,x,-z
-x,y,-z
-y,-x,-z
z,x,y
-x,z,y
-z,-x,y
x,-z,y
z,-x,-y
x,z,-y
-z,x,-y
-x,-z,-y
y,z,x
y,-z,-x
z,y,-x
-y,z,-x
-z,-y,-x
-y,-z,x
z,-y,x
-z,y,x
-x,-y,-z
y,-x,-z
x,y,-z
-y,x,-z
-x,y,z
-y,-x,z
x,-y,z
y,x,z
-z,-x,-y
x,-z,-y
z,x,-y
-x,z,-y
-z,x,y
-x,-z,y
z,-x,y
x,z,y
-y,-z,-x
-y,z,x
-z,-y,x
y,-z,x
z,y,x
y,z,-x
-z,y,-x
z,-y,-x
x,y+1/2,z+1/2
-y,x+1/2,z+1/2
-x,-y+1/2,z+1/2
y,-x+1/2,z+1/2
x,-y+1/2,-z+1/2
y,x+1/2,-z+1/2
-x,y+1/2,-z+1/2
-y,-x+1/2,-z+1/2
z,x+1/2,y+1/2
-x,z+1/2,y+1/2
-z,-x+1/2,y+1/2
x,-z+1/2,y+1/2
z,-x+1/2,-y+1/2
x,z+1/2,-y+1/2
-z,x+1/2,-y+1/2
-x,-z+1/2,-y+1/2
y,z+1/2,x+1/2
y,-z+1/2,-x+1/2
z,y+1/2,-x+1/2
-y,z+1/2,-x+1/2
-z,-y+1/2,-x+1/2
-y,-z+1/2,x+1/2
z,-y+1/2,x+1/2
-z,y+1/2,x+1/2
-x,-y+1/2,-z+1/2
y,-x+1/2,-z+1/2
x,y+1/2,-z+1/2
-y,x+1/2,-z+1/2
-x,y+1/2,z+1/2
-y,-x+1/2,z+1/2
x,-y+1/2,z+1/2
y,x+1/2,z+1/2
-z,-x+1/2,-y+1/2
x,-z+1/2,-y+1/2
z,x+1/2,-y+1/2
-x,z+1/2,-y+1/2
-z,x+1/2,y+1/2
-x,-z+1/2,y+1/2
z,-x+1/2,y+1/2
x,z+1/2,y+1/2
-y,-z+1/2,-x+1/2
-y,z+1/2,x+1/2
-z,-y+1/2,x+1/2
y,-z+1/2,x+1/2
z,y+1/2,x+1/2
y,z+1/2,-x+1/2
-z,y+1/2,-x+1/2
z,-y+1/2,-x+1/2
x+1/2,y,z+1/2
-y+1/2,x,z+1/2
-x+1/2,-y,z+1/2
y+1/2,-x,z+1/2
x+1/2,-y,-z+1/2
y+1/2,x,-z+1/2
-x+1/2,y,-z+1/2
-y+1/2,-x,-z+1/2
z+1/2,x,y+1/2
-x+1/2,z,y+1/2
-z+1/2,-x,y+1/2
x+1/2,-z,y+1/2
z+1/2,-x,-y+1/2
x+1/2,z,-y+1/2
-z+1/2,x,-y+1/2
-x+1/2,-z,-y+1/2
y+1/2,z,x+1/2
y+1/2,-z,-x+1/2
z+1/2,y,-x+1/2
-y+1/2,z,-x+1/2
-z+1/2,-y,-x+1/2
-y+1/2,-z,x+1/2
z+1/2,-y,x+1/2
-z+1/2,y,x+1/2
-x+1/2,-y,-z+1/2
y+1/2,-x,-z+1/2
x+1/2,y,-z+1/2
-y+1/2,x,-z+1/2
-x+1/2,y,z+1/2
-y+1/2,-x,z+1/2
x+1/2,-y,z+1/2
y+1/2,x,z+1/2
-z+1/2,-x,-y+1/2
x+1/2,-z,-y+1/2
z+1/2,x,-y+1/2
-x+1/2,z,-y+1/2
-z+1/2,x,y+1/2
-x+1/2,-z,y+1/2
z+1/2,-x,y+1/2
x+1/2,z,y+1/2
-y+1/2,-z,-x+1/2
-y+1/2,z,x+1/2
-z+1/2,-y,x+1/2
y+1/2,-z,x+1/2
z+1/2,y,x+1/2
y+1/2,z,-x+1/2
-z+1/2,y,-x+1/2
z+1/2,-y,-x+1/2
x+1/2,y+1/2,z
-y+1/2,x+1/2,z
-x+1/2,-y+1/2,z
y+1/2,-x+1/2,z
x+1/2,-y+1/2,-z
y+1/2,x+1/2,-z
-x+1/2,y+1/2,-z
-y+1/2,-x+1/2,-z
z+1/2,x+1/2,y
-x+1/2,z+1/2,y
-z+1/2,-x+1/2,y
x+1/2,-z+1/2,y
z+1/2,-x+1/2,-y
x+1/2,z+1/2,-y
-z+1/2,x+1/2,-y
-x+1/2,-z+1/2,-y
y+1/2,z+1/2,x
y+1/2,-z+1/2,-x
z+1/2,y+1/2,-x
-y+1/2,z+1/2,-x
-z+1/2,-y+1/2,-x
-y+1/2,-z+1/2,x
z+1/2,-y+1/2,x
-z+1/2,y+1/2,x
-x+1/2,-y+1/2,-z
y+1/2,-x+1/2,-z
x+1/2,y+1/2,-z
-y+1/2,x+1/2,-z
-x+1/2,y+1/2,z
-y+1/2,-x+1/2,z
x+1/2,-y+1/2,z
y+1/2,x+1/2,z
-z+1/2,-x+1/2,-y
x+1/2,-z+1/2,-y
z+1/2,x+1/2,-y
-x+1/2,z+1/2,-y
-z+1/2,x+1/2,y
-x+1/2,-z+1/2,y
z+1/2,-x+1/2,y
x+1/2,z+1/2,y
-y+1/2,-z+1/2,-x
-y+1/2,z+1/2,x
-z+1/2,-y+1/2,x
y+1/2,-z+1/2,x
z+1/2,y+1/2,x
y+1/2,z+1/2,-x
-z+1/2,y+1/2,-x
z+1/2,-y+1/2,-x
loop_
_atom_site_label
_atom_site_type_symbol
_atom_site_fract_x
_atom_site_fract_y
_atom_site_fract_z
_atom_site_occupancy
_atom_site_U_iso_or_equiv
Ba2 Ba+2 0.5 0.5 0.5 1 0.0
Fe1 Fe+3 0.25 0.25 0.25 1 0.0
O1 O-2 0 0.25 0.25 0.875 0.0
Ba1 Ba+2 0 0 0 1 0.0
