#------------------------------------------------------------------------------
#$Date: 2016-02-13 21:28:24 +0200 (Sat, 13 Feb 2016) $
#$Revision: 176429 $
#$URL: svn://www.crystallography.net/cod/cif/4/12/48/4124867.cif $
#------------------------------------------------------------------------------
#
# This file is available in the Crystallography Open Database (COD),
# http://www.crystallography.net/
#
# All data on this site have been placed in the public domain by the
# contributors.
#
data_4124867
loop_
_publ_author_name
'Brown, B.W.'
'Banks, E.'
_publ_section_title
;
 The Sodium Tungsten Bronzes
;
_journal_name_full               'Journal of the American Chemical Society'
_journal_page_first              963
_journal_page_last               966
_journal_volume                  76
_journal_year                    1954
_chemical_formula_sum            'Na0.3 O3 W'
_chemical_name_systematic        'Na.30 W O3'
_space_group_IT_number           221
_symmetry_space_group_name_Hall  '-P 4 2 3'
_symmetry_space_group_name_H-M   'P m -3 m'
_cell_angle_alpha                90
_cell_angle_beta                 90
_cell_angle_gamma                90
_cell_formula_units_Z            1
_cell_length_a                   3.809
_cell_length_b                   3.809
_cell_length_c                   3.809
_cell_volume                     55.263
_citation_journal_id_ASTM        JACSAT
_cod_data_source_file            Brown_JACSAT_1954_1047.cif
_cod_data_source_block           Na0.3O3W1
_cod_original_cell_volume        55.26281
_cod_original_formula_sum        'Na0.3 O3 W1'
_cod_database_code               4124867
loop_
_symmetry_equiv_pos_as_xyz
x,y,z
-y,x,z
-x,-y,z
y,-x,z
x,-y,-z
y,x,-z
-x,y,-z
-y,-x,-z
z,x,y
-x,z,y
-z,-x,y
x,-z,y
z,-x,-y
x,z,-y
-z,x,-y
-x,-z,-y
y,z,x
y,-z,-x
z,y,-x
-y,z,-x
-z,-y,-x
-y,-z,x
z,-y,x
-z,y,x
-x,-y,-z
y,-x,-z
x,y,-z
-y,x,-z
-x,y,z
-y,-x,z
x,-y,z
y,x,z
-z,-x,-y
x,-z,-y
z,x,-y
-x,z,-y
-z,x,y
-x,-z,y
z,-x,y
x,z,y
-y,-z,-x
-y,z,x
-z,-y,x
y,-z,x
z,y,x
y,z,-x
-z,y,-x
z,-y,-x
loop_
_atom_site_label
_atom_site_type_symbol
_atom_site_fract_x
_atom_site_fract_y
_atom_site_fract_z
_atom_site_occupancy
_atom_site_U_iso_or_equiv
Na1 Na+1 0 0 0 0.3 0.0
W1 W+5 0.5 0.5 0.5 1 0.0
O1 O-2 0.5 0.5 0 1 0.0
