#------------------------------------------------------------------------------
#$Date: 2016-02-13 21:28:24 +0200 (Sat, 13 Feb 2016) $
#$Revision: 176429 $
#$URL: svn://www.crystallography.net/cod/cif/4/12/41/4124114.cif $
#------------------------------------------------------------------------------
#
# This file is available in the Crystallography Open Database (COD),
# http://www.crystallography.net/
#
# All data on this site have been placed in the public domain by the
# contributors.
#
data_4124114
loop_
_publ_author_name
'Tassel, C.'
'Sumida, Y.'
'Tsujimoto, Y.'
'Watanabe, T.'
'Kitada, A.'
'Hayashi, N.'
'Kageyama, H.'
'Yoshimura, K.'
'Yamamoto, T.'
'Takano, M.'
_publ_section_title
;
 Stability of the infinite layer structure with iron square planar
 coordination
;
_journal_name_full               'Journal of the American Chemical Society'
_journal_page_first              3764
_journal_page_last               3765
_journal_volume                  130
_journal_year                    2008
_chemical_formula_sum            'Ca0.8 Fe O2 Sr0.2'
_chemical_name_systematic        'Sr0.2 Ca0.8 Fe O2'
_space_group_IT_number           123
_symmetry_space_group_name_Hall  '-P 4 2'
_symmetry_space_group_name_H-M   'P 4/m m m'
_cell_angle_alpha                90
_cell_angle_beta                 90
_cell_angle_gamma                90
_cell_formula_units_Z            1
_cell_length_a                   3.9028
_cell_length_b                   3.9028
_cell_length_c                   3.29132
_cell_volume                     50.133
_citation_journal_id_ASTM        JACSAT
_cod_data_source_file            Tassel_JACSAT_2008_1475.cif
_cod_data_source_block           Ca0.8Fe1O2Sr0.2
_cod_original_cell_volume        50.13289
_cod_original_formula_sum        'Ca0.8 Fe1 O2 Sr0.2'
_cod_database_code               4124114
loop_
_symmetry_equiv_pos_as_xyz
x,y,z
-y,x,z
-x,-y,z
y,-x,z
x,-y,-z
y,x,-z
-x,y,-z
-y,-x,-z
-x,-y,-z
y,-x,-z
x,y,-z
-y,x,-z
-x,y,z
-y,-x,z
x,-y,z
y,x,z
loop_
_atom_site_label
_atom_site_type_symbol
_atom_site_fract_x
_atom_site_fract_y
_atom_site_fract_z
_atom_site_occupancy
_atom_site_U_iso_or_equiv
O1 O-2 0.5 0 0 1 0.0
Sr1 Sr+2 0.5 0.5 0.5 0.2 0.0
Ca2 Ca+2 0.5 0.5 0.5 0.8 0.0
Fe1 Fe+2 0 0 0 1 0.0
