#------------------------------------------------------------------------------
#$Date: 2018-09-27 07:13:35 +0300 (Thu, 27 Sep 2018) $
#$Revision: 211196 $
#$URL: file:///home/coder/svn-repositories/cod/cif/4/12/41/4124115.cif $
#------------------------------------------------------------------------------
#
# This file is available in the Crystallography Open Database (COD),
# http://www.crystallography.net/
#
# All data on this site have been placed in the public domain by the
# contributors.
#
data_4124115
loop_
_publ_author_name
'Tassel, C.'
'Watanabe, T.'
'Sumida, Y.'
'Hayashi, N.'
'Takano, M.'
'Tsujimoto, Y.'
'Kitada, A.'
'Yamamoto, T.'
'Kageyama, H.'
'Yoshimura, K.'
_publ_section_title
;
 Stability of the infinite layer structure with iron square planar
 coordination
;
_journal_name_full               'Journal of the American Chemical Society'
_journal_page_first              3764
_journal_page_last               3765
_journal_volume                  130
_journal_year                    2008
_chemical_formula_sum            'Ca Fe O2'
_space_group_IT_number           123
_symmetry_space_group_name_Hall  '-P 4 2'
_symmetry_space_group_name_H-M   'P 4/m m m'
_cell_angle_alpha                90
_cell_angle_beta                 90
_cell_angle_gamma                90
_cell_formula_units_Z            1
_cell_length_a                   3.89079
_cell_length_b                   3.89079
_cell_length_c                   3.35433
_cell_volume                     50.779
_citation_journal_id_ASTM        JACSAT
_cod_data_source_file            Tassel_JACSAT_2008_1476.cif
_cod_data_source_block           Ca1Fe1O2
_cod_original_cell_volume        50.77868
_cod_original_formula_sum        'Ca1 Fe1 O2'
_cod_database_code               4124115
loop_
_symmetry_equiv_pos_as_xyz
x,y,z
-y,x,z
-x,-y,z
y,-x,z
x,-y,-z
y,x,-z
-x,y,-z
-y,-x,-z
-x,-y,-z
y,-x,-z
x,y,-z
-y,x,-z
-x,y,z
-y,-x,z
x,-y,z
y,x,z
loop_
_atom_site_label
_atom_site_type_symbol
_atom_site_fract_x
_atom_site_fract_y
_atom_site_fract_z
_atom_site_occupancy
_atom_site_U_iso_or_equiv
Ca1 Ca+2 0.5 0.5 0.5 1 0.0
Fe1 Fe+2 0 0 0 1 0.0
O1 O-2 0.5 0 0 1 0.0
