#------------------------------------------------------------------------------
#$Date: 2018-09-27 07:13:35 +0300 (Thu, 27 Sep 2018) $
#$Revision: 211196 $
#$URL: file:///home/coder/svn-repositories/cod/cif/4/12/48/4124851.cif $
#------------------------------------------------------------------------------
#
# This file is available in the Crystallography Open Database (COD),
# http://www.crystallography.net/
#
# All data on this site have been placed in the public domain by the
# contributors.
#
data_4124851
loop_
_publ_author_name
'Strauss, S.W.'
'Fankuchen, I.'
'Ward, R.'
_publ_section_title
;
 Barium Cobalt Oxide of the Perowskite Type
;
_journal_name_full               'Journal of the American Chemical Society'
_journal_page_first              5084
_journal_page_last               5086
_journal_volume                  73
_journal_year                    1951
_chemical_formula_sum            'Ba Co O2.23'
_space_group_IT_number           221
_symmetry_space_group_name_Hall  '-P 4 2 3'
_symmetry_space_group_name_H-M   'P m -3 m'
_cell_angle_alpha                90
_cell_angle_beta                 90
_cell_angle_gamma                90
_cell_formula_units_Z            1
_cell_length_a                   4.072
_cell_length_b                   4.072
_cell_length_c                   4.072
_cell_volume                     67.519
_citation_journal_id_ASTM        JACSAT
_cod_data_source_file            Strauss_JACSAT_1951_995.cif
_cod_data_source_block           Ba1Co1O2.23
_cod_original_cell_volume        67.51859
_cod_original_formula_sum        'Ba1 Co1 O2.23'
_cod_database_code               4124851
loop_
_symmetry_equiv_pos_as_xyz
x,y,z
-y,x,z
-x,-y,z
y,-x,z
x,-y,-z
y,x,-z
-x,y,-z
-y,-x,-z
z,x,y
-x,z,y
-z,-x,y
x,-z,y
z,-x,-y
x,z,-y
-z,x,-y
-x,-z,-y
y,z,x
y,-z,-x
z,y,-x
-y,z,-x
-z,-y,-x
-y,-z,x
z,-y,x
-z,y,x
-x,-y,-z
y,-x,-z
x,y,-z
-y,x,-z
-x,y,z
-y,-x,z
x,-y,z
y,x,z
-z,-x,-y
x,-z,-y
z,x,-y
-x,z,-y
-z,x,y
-x,-z,y
z,-x,y
x,z,y
-y,-z,-x
-y,z,x
-z,-y,x
y,-z,x
z,y,x
y,z,-x
-z,y,-x
z,-y,-x
loop_
_atom_site_label
_atom_site_type_symbol
_atom_site_fract_x
_atom_site_fract_y
_atom_site_fract_z
_atom_site_occupancy
_atom_site_U_iso_or_equiv
O1 O-2 0.5 0.5 0 0.7433 0.0
Co1 Co+2 0.5 0.5 0.5 1 0.0
Ba1 Ba+2 0 0 0 1 0.0
