#------------------------------------------------------------------------------
#$Date: 2015-09-06 16:09:20 +0300 (Sun, 06 Sep 2015) $
#$Revision: 154858 $
#$URL: svn://www.crystallography.net/cod/cif/4/12/44/4124427.cif $
#------------------------------------------------------------------------------
#
# This file is available in the Crystallography Open Database (COD),
# http://www.crystallography.net/
#
# All data on this site have been placed in the public domain by the
# contributors.
#
data_4124427
loop_
_publ_author_name
'Firor, R.L.'
'Seff, K.'
_publ_section_title
;
 Zero-coordinate K+: Crystal structure of dehydrated cesium and potassium
 exchanged zeolite A. Cs7 K5 - A
;
_journal_name_full               'Journal of the American Chemical Society'
_journal_page_first              6249
_journal_page_last               6253
_journal_volume                  99
_journal_year                    1977
_chemical_formula_sum            'Al12 Cs7 K5 O48 Si12'
_chemical_name_systematic        'Cs7 K5 Al12 Si12 O48'
_space_group_IT_number           221
_symmetry_space_group_name_Hall  '-P 4 2 3'
_symmetry_space_group_name_H-M   'P m -3 m'
_cell_angle_alpha                90
_cell_angle_beta                 90
_cell_angle_gamma                90
_cell_formula_units_Z            1
_cell_length_a                   12.266
_cell_length_b                   12.266
_cell_length_c                   12.266
_cell_volume                     1845.478
_citation_journal_id_ASTM        JACSAT
_cod_data_source_file            Firor_JACSAT_1977_208.cif
_cod_data_source_block           Al12Cs7K5O48Si12
_cod_database_code               4124427
loop_
_symmetry_equiv_pos_as_xyz
x,y,z
-y,x,z
-x,-y,z
y,-x,z
x,-y,-z
y,x,-z
-x,y,-z
-y,-x,-z
z,x,y
-x,z,y
-z,-x,y
x,-z,y
z,-x,-y
x,z,-y
-z,x,-y
-x,-z,-y
y,z,x
y,-z,-x
z,y,-x
-y,z,-x
-z,-y,-x
-y,-z,x
z,-y,x
-z,y,x
-x,-y,-z
y,-x,-z
x,y,-z
-y,x,-z
-x,y,z
-y,-x,z
x,-y,z
y,x,z
-z,-x,-y
x,-z,-y
z,x,-y
-x,z,-y
-z,x,y
-x,-z,y
z,-x,y
x,z,y
-y,-z,-x
-y,z,x
-z,-y,x
y,-z,x
z,y,x
y,z,-x
-z,y,-x
z,-y,-x
loop_
_atom_site_label
_atom_site_type_symbol
_atom_site_fract_x
_atom_site_fract_y
_atom_site_fract_z
_atom_site_occupancy
_atom_site_U_iso_or_equiv
Al1 Al+3 0 0.1834 0.3721 0.5 0.0
O3 O-2 0.1123 0.1123 0.3407 1 0.0
Si1 Si+4 0 0.1834 0.3721 0.5 0.0
O2 O-2 0 0.2946 0.2946 1 0.0
Cs3 Cs+1 0.0823 0.0823 0.0823 0.125 0.0
Cs1 Cs+1 0.2702 0.2702 0.2702 0.375 0.0
Cs2 Cs+1 0 0.5 0.5 1 0.0
K2 K+1 0.13 0.13 0.13 0.125 0.0
K3 K+1 0.3656 0.3656 0.3656 0.125 0.0
K1 K+1 0.2083 0.2083 0.2083 0.375 0.0
O1 O-2 0 0.2248 0.5 1 0.0
