#------------------------------------------------------------------------------
#$Date: 2016-03-23 00:29:17 +0200 (Wed, 23 Mar 2016) $
#$Revision: 179113 $
#$URL: svn://www.crystallography.net/cod/cif/4/30/75/4307587.cif $
#------------------------------------------------------------------------------
#
# This file is available in the Crystallography Open Database (COD),
# http://www.crystallography.net/
#
# All data on this site have been placed in the public domain by the
# contributors.
#
data_4307587
loop_
_publ_author_name
'Samuel J. Mugavero'
'Mark D. Smith'
'Hans-Conrad zur Loye'
_publ_contact_author_address
;
Department of Chemistry and Biochemistry
University of South Carolina
Columbia, SC  29208
USA
;
_publ_contact_author_email       zurloye@sc.edu
_publ_contact_author_fax         '803 777 8508'
_publ_contact_author_name        'Professor Hans-Conrad zur Loye'
_publ_contact_author_phone       '803 777 6916'
_publ_section_title
;
Crystal Growth and Structural Characterization of the New Ordered
Palladates LnKPdO3 (Ln = La, Pr, Nd, Sm-Gd) and the Isostructural,
Partially Cu-Substituted Palladate PrK(Cu0.14Pd0.86)O3
;
_journal_name_full               'Inorganic Chemistry'
_journal_page_first              3116
_journal_page_last               3122
_journal_paper_doi               10.1021/ic062066m
_journal_volume                  46
_journal_year                    2007
_chemical_formula_moiety         'K O3 Pd Pr'
_chemical_formula_sum            'K O3 Pd Pr'
_chemical_formula_weight         334.41
_chemical_name_systematic
; 
 ? 
;
_space_group_IT_number           12
_symmetry_cell_setting           monoclinic
_symmetry_space_group_name_Hall  '-C 2y'
_symmetry_space_group_name_H-M   'C 1 2/m 1'
_atom_sites_solution_hydrogens   none
_atom_sites_solution_primary     direct
_atom_sites_solution_secondary   difmap
_audit_creation_method           SHELXL-97
_cell_angle_alpha                90.00
_cell_angle_beta                 105.1580(10)
_cell_angle_gamma                90.00
_cell_formula_units_Z            4
_cell_length_a                   13.2620(5)
_cell_length_b                   3.9576(2)
_cell_length_c                   7.3865(3)
_cell_measurement_reflns_used    2666
_cell_measurement_temperature    294(2)
_cell_measurement_theta_max      32.465
_cell_measurement_theta_min      2.857
_cell_volume                     374.20(3)
_computing_cell_refinement       'SAINT+ NT V6.22 (Bruker, 2001)'
_computing_data_collection       'SMART NT V5.625 (Bruker, 1998)'
_computing_data_reduction        'SAINT+ NT V6.22'
_computing_molecular_graphics    'SHELXTL V6.1 (Sheldrick, 2000)'
_computing_publication_material  'SHELXTL V6.1'
_computing_structure_refinement  'SHELXL-97 (Sheldrick, 1997)'
_computing_structure_solution    'SHELXS-97 (Sheldrick, 1990)'
_diffrn_ambient_temperature      294(2)
_diffrn_measured_fraction_theta_full 1.000
_diffrn_measured_fraction_theta_max 1.000
_diffrn_measurement_device_type  'Bruker SMART APEX CCD diffractometer'
_diffrn_measurement_method       'omega scans'
_diffrn_radiation_monochromator  graphite
_diffrn_radiation_source         'fine-focus sealed tube'
_diffrn_radiation_type           MoK\a
_diffrn_radiation_wavelength     0.71073
_diffrn_reflns_av_R_equivalents  0.0278
_diffrn_reflns_av_sigmaI/netI    0.0198
_diffrn_reflns_limit_h_max       20
_diffrn_reflns_limit_h_min       -19
_diffrn_reflns_limit_k_max       5
_diffrn_reflns_limit_k_min       -5
_diffrn_reflns_limit_l_max       10
_diffrn_reflns_limit_l_min       -11
_diffrn_reflns_number            4041
_diffrn_reflns_theta_full        32.57
_diffrn_reflns_theta_max         32.57
_diffrn_reflns_theta_min         2.86
_diffrn_standards_decay_%        0
_exptl_absorpt_coefficient_mu    18.608
_exptl_absorpt_correction_T_max  1.0000
_exptl_absorpt_correction_T_min  0.5177
_exptl_absorpt_correction_type   multi-scan
_exptl_absorpt_process_details   '(SADABS, Bruker, 2001)'
_exptl_crystal_colour            brown
_exptl_crystal_density_diffrn    5.936
_exptl_crystal_density_meas      5.94
_exptl_crystal_density_method    'not measured'
_exptl_crystal_description       needle
_exptl_crystal_F_000             592
_exptl_crystal_size_max          0.08
_exptl_crystal_size_mid          0.04
_exptl_crystal_size_min          0.02
_refine_diff_density_max         0.978
_refine_diff_density_min         -1.180
_refine_diff_density_rms         0.226
_refine_ls_extinction_coef       0.0060(2)
_refine_ls_extinction_expression Fc^*^=kFc[1+0.001xFc^2^\l^3^/sin(2\q)]^-1/4^
_refine_ls_extinction_method     SHELXL
_refine_ls_goodness_of_fit_ref   1.086
_refine_ls_hydrogen_treatment    none
_refine_ls_matrix_type           full
_refine_ls_number_parameters     38
_refine_ls_number_reflns         765
_refine_ls_number_restraints     0
_refine_ls_restrained_S_all      1.086
_refine_ls_R_factor_all          0.0165
_refine_ls_R_factor_gt           0.0156
_refine_ls_shift/su_max          0.001
_refine_ls_shift/su_mean         0.000
_refine_ls_structure_factor_coef Fsqd
_refine_ls_weighting_details
'calc w=1/[\s^2^(Fo^2^)+(0.0191P)^2^+0.6210P] where P=(Fo^2^+2Fc^2^)/3'
_refine_ls_weighting_scheme      calc
_refine_ls_wR_factor_gt          0.0377
_refine_ls_wR_factor_ref         0.0383
_reflns_number_gt                734
_reflns_number_total             765
_reflns_threshold_expression     >2sigma(I)
_cod_data_source_file            ic062066msi20061029_033041.cif
_cod_data_source_block           PrKPdO3
_cod_depositor_comments
;
The following automatic conversions were performed:
'_symmetry_cell_setting' value 'Monoclinic' changed to 'monoclinic'
according to '/home/saulius/struct/CIF-dictionaries/cif_core.dic'
dictionary named 'cif_core.dic' version 2.4.1 from 2010-06-29.

Automatic conversion script
Id: cif_fix_enum 1527 2010-12-29 10:47:43Z saulius 
;
_cod_original_sg_symbol_H-M      'C 2/m'
_cod_database_code               4307587
loop_
_symmetry_equiv_pos_as_xyz
'x, y, z'
'-x, y, -z'
'x+1/2, y+1/2, z'
'-x+1/2, y+1/2, -z'
'-x, -y, -z'
'x, -y, z'
'-x+1/2, -y+1/2, -z'
'x+1/2, -y+1/2, z'
loop_
_atom_site_label
_atom_site_type_symbol
_atom_site_fract_x
_atom_site_fract_y
_atom_site_fract_z
_atom_site_U_iso_or_equiv
_atom_site_adp_type
_atom_site_occupancy
_atom_site_symmetry_multiplicity
_atom_site_calc_flag
_atom_site_refinement_flags
_atom_site_disorder_assembly
_atom_site_disorder_group
Pr1 Pr 0.650517(15) 0.0000 0.08103(3) 0.00844(8) Uani 1 2 d S . .
Pd1 Pd 0.006646(19) 0.0000 0.77746(4) 0.00734(8) Uani 1 2 d S . .
K1 K 0.35751(7) 0.0000 0.43559(12) 0.01450(17) Uani 1 2 d S . .
O1 O 0.8322(2) 0.0000 0.1330(4) 0.0111(5) Uani 1 2 d S . .
O2 O 0.4938(2) 0.0000 0.1989(4) 0.0129(5) Uani 1 2 d S . .
O3 O 0.1515(2) 0.0000 0.2801(4) 0.0099(5) Uani 1 2 d S . .
loop_
_atom_site_aniso_label
_atom_site_aniso_U_11
_atom_site_aniso_U_22
_atom_site_aniso_U_33
_atom_site_aniso_U_23
_atom_site_aniso_U_13
_atom_site_aniso_U_12
Pr1 0.00647(11) 0.00795(11) 0.01100(11) 0.000 0.00250(7) 0.000
Pd1 0.00622(13) 0.00603(14) 0.00967(14) 0.000 0.00190(9) 0.000
K1 0.0118(4) 0.0182(4) 0.0134(4) 0.000 0.0031(3) 0.000
O1 0.0081(11) 0.0119(13) 0.0129(12) 0.000 0.0020(10) 0.000
O2 0.0139(12) 0.0070(12) 0.0181(13) 0.000 0.0044(10) 0.000
O3 0.0054(10) 0.0116(12) 0.0120(11) 0.000 0.0013(9) 0.000
loop_
_atom_type_symbol
_atom_type_description
_atom_type_scat_dispersion_real
_atom_type_scat_dispersion_imag
_atom_type_scat_source
O O 0.0106 0.0060 'International Tables Vol C Tables 4.2.6.8 and 6.1.1.4'
K K 0.2009 0.2494 'International Tables Vol C Tables 4.2.6.8 and 6.1.1.4'
Pr Pr -0.2180 2.8214 'International Tables Vol C Tables 4.2.6.8 and 6.1.1.4'
Pd Pd -0.9988 1.0072 'International Tables Vol C Tables 4.2.6.8 and 6.1.1.4'
loop_
_geom_angle_atom_site_label_1
_geom_angle_atom_site_label_2
_geom_angle_atom_site_label_3
_geom_angle
_geom_angle_site_symmetry_1
_geom_angle_site_symmetry_3
_geom_angle_publ_flag
O1 Pr1 O2 133.63(10) . 5_655 ?
O1 Pr1 O2 150.87(9) . . ?
O2 Pr1 O2 75.50(11) 5_655 . ?
O1 Pr1 O3 93.31(7) . 3 ?
O2 Pr1 O3 112.90(7) 5_655 3 ?
O2 Pr1 O3 70.19(7) . 3 ?
O1 Pr1 O3 93.31(7) . 3_545 ?
O2 Pr1 O3 112.90(7) 5_655 3_545 ?
O2 Pr1 O3 70.19(7) . 3_545 ?
O3 Pr1 O3 106.90(10) 3 3_545 ?
O1 Pr1 O1 81.24(7) . 7_645 ?
O2 Pr1 O1 69.75(7) 5_655 7_645 ?
O2 Pr1 O1 115.88(6) . 7_645 ?
O3 Pr1 O1 173.93(8) 3 7_645 ?
O3 Pr1 O1 76.24(7) 3_545 7_645 ?
O1 Pr1 O1 81.24(7) . 7_655 ?
O2 Pr1 O1 69.75(7) 5_655 7_655 ?
O2 Pr1 O1 115.88(6) . 7_655 ?
O3 Pr1 O1 76.24(7) 3 7_655 ?
O3 Pr1 O1 173.93(8) 3_545 7_655 ?
O1 Pr1 O1 100.17(9) 7_645 7_655 ?
O1 Pr1 Pd1 120.81(5) . 3_544 ?
O2 Pr1 Pd1 38.073(6) 5_655 3_544 ?
O2 Pr1 Pd1 81.04(5) . 3_544 ?
O3 Pr1 Pd1 145.07(6) 3 3_544 ?
O3 Pr1 Pd1 80.30(5) 3_545 3_544 ?
O1 Pr1 Pd1 39.88(6) 7_645 3_544 ?
O1 Pr1 Pd1 100.15(5) 7_655 3_544 ?
O1 Pr1 Pd1 120.81(5) . 3_554 ?
O2 Pr1 Pd1 38.073(6) 5_655 3_554 ?
O2 Pr1 Pd1 81.04(5) . 3_554 ?
O3 Pr1 Pd1 80.30(5) 3 3_554 ?
O3 Pr1 Pd1 145.07(6) 3_545 3_554 ?
O1 Pr1 Pd1 100.15(5) 7_645 3_554 ?
O1 Pr1 Pd1 39.88(6) 7_655 3_554 ?
Pd1 Pr1 Pd1 75.929(8) 3_544 3_554 ?
O1 Pr1 Pd1 132.02(4) . 7_546 ?
O2 Pr1 Pd1 81.03(5) 5_655 7_546 ?
O2 Pr1 Pd1 37.767(6) . 7_546 ?
O3 Pr1 Pd1 101.63(5) 3 7_546 ?
O3 Pr1 Pd1 38.74(6) 3_545 7_546 ?
O1 Pr1 Pd1 84.08(5) 7_645 7_546 ?
O1 Pr1 Pd1 146.51(6) 7_655 7_546 ?
Pd1 Pr1 Pd1 62.270(9) 3_544 7_546 ?
Pd1 Pr1 Pd1 106.638(7) 3_554 7_546 ?
O1 Pr1 Pd1 132.02(4) . 7_556 ?
O2 Pr1 Pd1 81.03(5) 5_655 7_556 ?
O2 Pr1 Pd1 37.767(6) . 7_556 ?
O3 Pr1 Pd1 38.74(6) 3 7_556 ?
O3 Pr1 Pd1 101.63(5) 3_545 7_556 ?
O1 Pr1 Pd1 146.51(6) 7_645 7_556 ?
O1 Pr1 Pd1 84.08(5) 7_655 7_556 ?
Pd1 Pr1 Pd1 106.638(7) 3_544 7_556 ?
Pd1 Pr1 Pd1 62.270(9) 3_554 7_556 ?
Pd1 Pr1 Pd1 75.311(8) 7_546 7_556 ?
O1 Pr1 K1 97.68(7) . 5_656 ?
O2 Pr1 K1 128.68(7) 5_655 5_656 ?
O2 Pr1 K1 53.18(7) . 5_656 ?
O3 Pr1 K1 53.48(5) 3 5_656 ?
O3 Pr1 K1 53.48(5) 3_545 5_656 ?
O1 Pr1 K1 129.65(5) 7_645 5_656 ?
O1 Pr1 K1 129.65(5) 7_655 5_656 ?
Pd1 Pr1 K1 121.698(11) 3_544 5_656 ?
Pd1 Pr1 K1 121.698(11) 3_554 5_656 ?
Pd1 Pr1 K1 59.437(11) 7_546 5_656 ?
Pd1 Pr1 K1 59.437(11) 7_556 5_656 ?
O2 Pd1 O2 169.83(17) 7_556 7_546 ?
O2 Pd1 O3 89.54(8) 7_556 5_556 ?
O2 Pd1 O3 89.54(8) 7_546 5_556 ?
O2 Pd1 O1 89.90(8) 7_556 5_656 ?
O2 Pd1 O1 89.90(8) 7_546 5_656 ?
O3 Pd1 O1 173.66(12) 5_556 5_656 ?
O2 Pd1 Pr1 48.76(8) 7_556 3_456 ?
O2 Pd1 Pr1 124.49(8) 7_546 3_456 ?
O3 Pd1 Pr1 122.58(5) 5_556 3_456 ?
O1 Pd1 Pr1 53.22(5) 5_656 3_456 ?
O2 Pd1 Pr1 124.49(8) 7_556 3_446 ?
O2 Pd1 Pr1 48.76(8) 7_546 3_446 ?
O3 Pd1 Pr1 122.58(5) 5_556 3_446 ?
O1 Pd1 Pr1 53.22(5) 5_656 3_446 ?
Pr1 Pd1 Pr1 75.929(8) 3_456 3_446 ?
O2 Pd1 Pr1 124.29(8) 7_556 7_546 ?
O2 Pd1 Pr1 49.18(8) 7_546 7_546 ?
O3 Pd1 Pr1 49.47(5) 5_556 7_546 ?
O1 Pd1 Pr1 126.58(5) 5_656 7_546 ?
Pr1 Pd1 Pr1 117.731(9) 3_456 7_546 ?
Pr1 Pd1 Pr1 73.363(7) 3_446 7_546 ?
O2 Pd1 Pr1 49.18(8) 7_556 7_556 ?
O2 Pd1 Pr1 124.29(8) 7_546 7_556 ?
O3 Pd1 Pr1 49.47(5) 5_556 7_556 ?
O1 Pd1 Pr1 126.58(5) 5_656 7_556 ?
Pr1 Pd1 Pr1 73.363(7) 3_456 7_556 ?
Pr1 Pd1 Pr1 117.731(9) 3_446 7_556 ?
Pr1 Pd1 Pr1 75.310(8) 7_546 7_556 ?
O2 Pd1 K1 57.63(8) 7_556 7_556 ?
O2 Pd1 K1 130.30(8) 7_546 7_556 ?
O3 Pd1 K1 123.91(6) 5_556 7_556 ?
O1 Pd1 K1 60.64(6) 5_656 7_556 ?
Pr1 Pd1 K1 70.656(15) 3_456 7_556 ?
Pr1 Pd1 K1 113.505(17) 3_446 7_556 ?
Pr1 Pd1 K1 170.899(19) 7_546 7_556 ?
Pr1 Pd1 K1 105.213(10) 7_556 7_556 ?
O2 Pd1 K1 130.30(8) 7_556 7_546 ?
O2 Pd1 K1 57.63(8) 7_546 7_546 ?
O3 Pd1 K1 123.91(6) 5_556 7_546 ?
O1 Pd1 K1 60.64(6) 5_656 7_546 ?
Pr1 Pd1 K1 113.505(17) 3_456 7_546 ?
Pr1 Pd1 K1 70.656(15) 3_446 7_546 ?
Pr1 Pd1 K1 105.213(10) 7_546 7_546 ?
Pr1 Pd1 K1 170.899(19) 7_556 7_546 ?
K1 Pd1 K1 72.796(18) 7_556 7_546 ?
O2 Pd1 K1 129.02(8) 7_556 3_445 ?
O2 Pd1 K1 58.12(8) 7_546 3_445 ?
O3 Pd1 K1 58.42(6) 5_556 3_445 ?
O1 Pd1 K1 126.11(6) 5_656 3_445 ?
Pr1 Pd1 K1 176.572(13) 3_456 3_445 ?
Pr1 Pd1 K1 106.448(9) 3_446 3_445 ?
Pr1 Pd1 K1 65.560(14) 7_546 3_445 ?
Pr1 Pd1 K1 107.240(15) 7_556 3_445 ?
K1 Pd1 K1 105.998(14) 7_556 3_445 ?
K1 Pd1 K1 65.53(2) 7_546 3_445 ?
O2 Pd1 K1 58.12(8) 7_556 3_455 ?
O2 Pd1 K1 129.02(8) 7_546 3_455 ?
O3 Pd1 K1 58.42(6) 5_556 3_455 ?
O1 Pd1 K1 126.11(6) 5_656 3_455 ?
Pr1 Pd1 K1 106.448(9) 3_456 3_455 ?
Pr1 Pd1 K1 176.572(13) 3_446 3_455 ?
Pr1 Pd1 K1 107.240(15) 7_546 3_455 ?
Pr1 Pd1 K1 65.560(14) 7_556 3_455 ?
K1 Pd1 K1 65.53(2) 7_556 3_455 ?
K1 Pd1 K1 105.998(14) 7_546 3_455 ?
K1 Pd1 K1 71.069(17) 3_445 3_455 ?
O3 K1 O2 118.79(9) . . ?
O3 K1 O2 140.43(9) . 5_656 ?
O2 K1 O2 100.78(8) . 5_656 ?
O3 K1 O3 94.59(7) . 7_556 ?
O2 K1 O3 126.90(6) . 7_556 ?
O2 K1 O3 58.26(6) 5_656 7_556 ?
O3 K1 O3 94.59(7) . 7_546 ?
O2 K1 O3 126.90(6) . 7_546 ?
O2 K1 O3 58.26(6) 5_656 7_546 ?
O3 K1 O3 85.66(8) 7_556 7_546 ?
O3 K1 O1 76.84(7) . 3_445 ?
O2 K1 O1 59.56(6) . 3_445 ?
O2 K1 O1 128.57(5) 5_656 3_445 ?
O3 K1 O1 171.40(8) 7_556 3_445 ?
O3 K1 O1 94.19(6) 7_546 3_445 ?
O3 K1 O1 76.84(7) . 3_455 ?
O2 K1 O1 59.56(6) . 3_455 ?
O2 K1 O1 128.57(6) 5_656 3_455 ?
O3 K1 O1 94.19(6) 7_556 3_455 ?
O3 K1 O1 171.40(8) 7_546 3_455 ?
O1 K1 O1 84.67(8) 3_445 3_455 ?
O3 K1 Pd1 114.51(5) . 7_556 ?
O2 K1 Pd1 36.457(9) . 7_556 ?
O2 K1 Pd1 96.87(5) 5_656 7_556 ?
O3 K1 Pd1 93.80(4) 7_556 7_556 ?
O3 K1 Pd1 150.82(6) 7_546 7_556 ?
O1 K1 Pd1 90.51(5) 3_445 7_556 ?
O1 K1 Pd1 37.78(5) 3_455 7_556 ?
O3 K1 Pd1 114.51(5) . 7_546 ?
O2 K1 Pd1 36.457(9) . 7_546 ?
O2 K1 Pd1 96.87(5) 5_656 7_546 ?
O3 K1 Pd1 150.82(6) 7_556 7_546 ?
O3 K1 Pd1 93.80(4) 7_546 7_546 ?
O1 K1 Pd1 37.78(5) 3_445 7_546 ?
O1 K1 Pd1 90.51(5) 3_455 7_546 ?
Pd1 K1 Pd1 72.795(18) 7_556 7_546 ?
O3 K1 Pd1 130.47(4) . 3 ?
O2 K1 Pd1 96.75(5) . 3 ?
O2 K1 Pd1 35.609(9) 5_656 3 ?
O3 K1 Pd1 36.41(5) 7_556 3 ?
O3 K1 Pd1 89.16(5) 7_546 3 ?
O1 K1 Pd1 152.17(6) 3_445 3 ?
O1 K1 Pd1 95.82(4) 3_455 3 ?
Pd1 K1 Pd1 74.001(15) 7_556 3 ?
Pd1 K1 Pd1 114.46(2) 7_546 3 ?
O3 K1 Pd1 130.47(4) . 3_545 ?
O2 K1 Pd1 96.75(5) . 3_545 ?
O2 K1 Pd1 35.609(10) 5_656 3_545 ?
O3 K1 Pd1 89.16(5) 7_556 3_545 ?
O3 K1 Pd1 36.41(5) 7_546 3_545 ?
O1 K1 Pd1 95.82(4) 3_445 3_545 ?
O1 K1 Pd1 152.17(6) 3_455 3_545 ?
Pd1 K1 Pd1 114.46(2) 7_556 3_545 ?
Pd1 K1 Pd1 74.001(14) 7_546 3_545 ?
Pd1 K1 Pd1 71.069(18) 3 3_545 ?
O3 K1 Pr1 97.72(6) . 5_656 ?
O2 K1 Pr1 143.49(6) . 5_656 ?
O2 K1 Pr1 42.71(6) 5_656 5_656 ?
O3 K1 Pr1 42.85(4) 7_556 5_656 ?
O3 K1 Pr1 42.85(4) 7_546 5_656 ?
O1 K1 Pr1 136.68(4) 3_445 5_656 ?
O1 K1 Pr1 136.68(4) 3_455 5_656 ?
Pd1 K1 Pr1 128.89(2) 7_556 5_656 ?
Pd1 K1 Pr1 128.89(2) 7_546 5_656 ?
Pd1 K1 Pr1 55.004(13) 3 5_656 ?
Pd1 K1 Pr1 55.004(13) 3_545 5_656 ?
Pd1 O1 Pr1 171.10(14) 5_656 . ?
Pd1 O1 Pr1 86.90(8) 5_656 7_645 ?
Pr1 O1 Pr1 98.76(7) . 7_645 ?
Pd1 O1 Pr1 86.90(8) 5_656 7_655 ?
Pr1 O1 Pr1 98.76(7) . 7_655 ?
Pr1 O1 Pr1 100.17(9) 7_645 7_655 ?
Pd1 O1 K1 81.58(7) 5_656 3 ?
Pr1 O1 K1 91.87(8) . 3 ?
Pr1 O1 K1 166.39(10) 7_645 3 ?
Pr1 O1 K1 86.491(19) 7_655 3 ?
Pd1 O1 K1 81.58(7) 5_656 3_545 ?
Pr1 O1 K1 91.87(8) . 3_545 ?
Pr1 O1 K1 86.491(19) 7_645 3_545 ?
Pr1 O1 K1 166.39(10) 7_655 3_545 ?
K1 O1 K1 84.68(8) 3 3_545 ?
Pd1 O2 Pd1 169.83(17) 7_556 7_546 ?
Pd1 O2 Pr1 93.17(8) 7_556 5_655 ?
Pd1 O2 Pr1 93.17(8) 7_546 5_655 ?
Pd1 O2 Pr1 93.05(8) 7_556 . ?
Pd1 O2 Pr1 93.05(8) 7_546 . ?
Pr1 O2 Pr1 104.50(11) 5_655 . ?
Pd1 O2 K1 85.91(8) 7_556 . ?
Pd1 O2 K1 85.91(8) 7_546 . ?
Pr1 O2 K1 92.17(9) 5_655 . ?
Pr1 O2 K1 163.33(12) . . ?
Pd1 O2 K1 86.27(8) 7_556 5_656 ?
Pd1 O2 K1 86.27(8) 7_546 5_656 ?
Pr1 O2 K1 171.40(12) 5_655 5_656 ?
Pr1 O2 K1 84.10(8) . 5_656 ?
K1 O2 K1 79.22(8) . 5_656 ?
Pd1 O3 Pr1 91.79(8) 5_556 3_445 ?
Pd1 O3 Pr1 91.79(8) 5_556 3_455 ?
Pr1 O3 Pr1 106.90(10) 3_445 3_455 ?
Pd1 O3 K1 167.15(14) 5_556 . ?
Pr1 O3 K1 95.84(7) 3_445 . ?
Pr1 O3 K1 95.84(7) 3_455 . ?
Pd1 O3 K1 85.17(7) 5_556 7_556 ?
Pr1 O3 K1 169.12(9) 3_445 7_556 ?
Pr1 O3 K1 83.669(19) 3_455 7_556 ?
K1 O3 K1 85.41(7) . 7_556 ?
Pd1 O3 K1 85.17(7) 5_556 7_546 ?
Pr1 O3 K1 83.669(19) 3_445 7_546 ?
Pr1 O3 K1 169.12(9) 3_455 7_546 ?
K1 O3 K1 85.41(7) . 7_546 ?
K1 O3 K1 85.66(8) 7_556 7_546 ?
loop_
_geom_bond_atom_site_label_1
_geom_bond_atom_site_label_2
_geom_bond_distance
_geom_bond_site_symmetry_2
_geom_bond_publ_flag
Pr1 O1 2.339(3) . ?
Pr1 O2 2.422(3) 5_655 ?
Pr1 O2 2.455(3) . ?
Pr1 O3 2.4631(16) 3 ?
Pr1 O3 2.4631(16) 3_545 ?
Pr1 O1 2.5800(18) 7_645 ?
Pr1 O1 2.5800(18) 7_655 ?
Pr1 Pd1 3.2167(3) 3_544 ?
Pr1 Pd1 3.2166(3) 3_554 ?
Pr1 Pd1 3.2391(3) 7_546 ?
Pr1 Pd1 3.2391(3) 7_556 ?
Pr1 K1 3.5998(9) 5_656 ?
Pd1 O2 1.9866(3) 7_556 ?
Pd1 O2 1.9866(3) 7_546 ?
Pd1 O3 2.028(3) 5_556 ?
Pd1 O1 2.065(3) 5_656 ?
Pd1 Pr1 3.2167(3) 3_456 ?
Pd1 Pr1 3.2167(3) 3_446 ?
Pd1 Pr1 3.2391(3) 7_546 ?
Pd1 Pr1 3.2391(3) 7_556 ?
Pd1 K1 3.3347(7) 7_556 ?
Pd1 K1 3.3347(7) 7_546 ?
Pd1 K1 3.4047(7) 3_445 ?
Pd1 K1 3.4047(7) 3_455 ?
K1 O3 2.673(3) . ?
K1 O2 2.824(3) . ?
K1 O2 2.897(3) 5_656 ?
K1 O3 2.911(2) 7_556 ?
K1 O3 2.911(2) 7_546 ?
K1 O1 2.938(2) 3_445 ?
K1 O1 2.938(2) 3_455 ?
K1 Pd1 3.3348(7) 7_556 ?
K1 Pd1 3.3348(7) 7_546 ?
K1 Pd1 3.4047(7) 3 ?
K1 Pd1 3.4047(7) 3_545 ?
K1 Pr1 3.5998(9) 5_656 ?
O1 Pd1 2.065(3) 5_656 ?
O1 Pr1 2.5800(18) 7_645 ?
O1 Pr1 2.5800(18) 7_655 ?
O1 K1 2.938(2) 3 ?
O1 K1 2.938(2) 3_545 ?
O2 Pd1 1.9866(3) 7_556 ?
O2 Pd1 1.9866(3) 7_546 ?
O2 Pr1 2.422(3) 5_655 ?
O2 K1 2.897(3) 5_656 ?
O3 Pd1 2.028(3) 5_556 ?
O3 Pr1 2.4632(16) 3_445 ?
O3 Pr1 2.4632(16) 3_455 ?
O3 K1 2.911(2) 7_556 ?
O3 K1 2.911(2) 7_546 ?
