#------------------------------------------------------------------------------
#$Date: 2016-03-23 01:54:03 +0200 (Wed, 23 Mar 2016) $
#$Revision: 179160 $
#$URL: svn://www.crystallography.net/cod/cif/4/31/21/4312150.cif $
#------------------------------------------------------------------------------
#
# This file is available in the Crystallography Open Database (COD),
# http://www.crystallography.net/
#
# All data on this site have been placed in the public domain by the
# contributors.
#
data_4312150
loop_
_publ_author_name
'\/Lukasz Dobrzycki'
'Ewa Bulska'
'Dorota Anna Pawlak'
'Zygmunt Frukacz'
'Krzysztof Wo\'zniak'
_publ_section_title
;
 Structure of YAG Crystals Doped/Substituted with Erbium and Ytterbium
;
_journal_name_full               'Inorganic Chemistry'
_journal_page_first              7656
_journal_page_last               7664
_journal_paper_doi               10.1021/ic049920z
_journal_volume                  43
_journal_year                    2004
_chemical_formula_sum            'Al5 O12 Y0.72 Yb2.28'
_chemical_formula_weight         785.24
_chemical_name_systematic
; 
 ? 
;
_space_group_IT_number           230
_symmetry_cell_setting           cubic
_symmetry_space_group_name_Hall  '-I 4bd 2c 3'
_symmetry_space_group_name_H-M   'I a -3 d'
_atom_sites_solution_hydrogens   geom
_atom_sites_solution_primary     direct
_atom_sites_solution_secondary   difmap
_audit_creation_method           SHELXL-97
_cell_angle_alpha                90.00
_cell_angle_beta                 90.00
_cell_angle_gamma                90.00
_cell_formula_units_Z            8
_cell_length_a                   11.9427(14)
_cell_length_b                   11.9427(14)
_cell_length_c                   11.9427(14)
_cell_measurement_temperature    293(2)
_cell_volume                     1703.4(3)
_computing_structure_refinement  'SHELXL-97 (Sheldrick, 1997)'
_computing_structure_solution    'SHELXS-97 (Sheldrick, 1990)'
_diffrn_ambient_temperature      293(2)
_diffrn_measured_fraction_theta_full 1.000
_diffrn_measured_fraction_theta_max 1.000
_diffrn_radiation_monochromator  graphite
_diffrn_radiation_source         'fine-focus sealed tube'
_diffrn_radiation_type           MoK\a
_diffrn_radiation_wavelength     0.71073
_diffrn_reflns_av_R_equivalents  0.0000
_diffrn_reflns_av_sigmaI/netI    0.0566
_diffrn_reflns_limit_h_max       12
_diffrn_reflns_limit_h_min       0
_diffrn_reflns_limit_k_max       15
_diffrn_reflns_limit_k_min       0
_diffrn_reflns_limit_l_max       21
_diffrn_reflns_limit_l_min       2
_diffrn_reflns_number            454
_diffrn_reflns_theta_full        40.17
_diffrn_reflns_theta_max         40.17
_diffrn_reflns_theta_min         4.18
_exptl_absorpt_coefficient_mu    30.282
_exptl_crystal_density_diffrn    6.124
_exptl_crystal_density_method    'not measured'
_exptl_crystal_F_000             2789
_refine_diff_density_max         1.347
_refine_diff_density_min         -0.877
_refine_diff_density_rms         0.205
_refine_ls_extinction_coef       0.000552(13)
_refine_ls_extinction_expression Fc^*^=kFc[1+0.001xFc^2^\l^3^/sin(2\q)]^-1/4^
_refine_ls_extinction_method     SHELXL
_refine_ls_goodness_of_fit_ref   0.423
_refine_ls_hydrogen_treatment    mixed
_refine_ls_matrix_type           full
_refine_ls_number_parameters     18
_refine_ls_number_reflns         454
_refine_ls_number_restraints     0
_refine_ls_restrained_S_all      0.423
_refine_ls_R_factor_all          0.0286
_refine_ls_R_factor_gt           0.0109
_refine_ls_shift/su_max          0.640
_refine_ls_shift/su_mean         0.036
_refine_ls_structure_factor_coef Fsqd
_refine_ls_weighting_details
'calc w=1/[\s^2^(Fo^2^)+(0.0000P)^2^+0.0000P] where P=(Fo^2^+2Fc^2^)/3'
_refine_ls_weighting_scheme      calc
_refine_ls_wR_factor_gt          0.0219
_refine_ls_wR_factor_ref         0.0250
_reflns_number_gt                307
_reflns_number_total             454
_reflns_threshold_expression     >2sigma(I)
_cod_data_source_file            ic049920zsi20040119_085908_23.cif
_cod_data_source_block           yb75
_cod_database_code               4312150
loop_
_symmetry_equiv_pos_as_xyz
'x, y, z'
'-x+1/2, -y, z+1/2'
'-x, y+1/2, -z+1/2'
'x+1/2, -y+1/2, -z'
'z, x, y'
'z+1/2, -x+1/2, -y'
'-z+1/2, -x, y+1/2'
'-z, x+1/2, -y+1/2'
'y, z, x'
'-y, z+1/2, -x+1/2'
'y+1/2, -z+1/2, -x'
'-y+1/2, -z, x+1/2'
'y+3/4, x+1/4, -z+1/4'
'-y+3/4, -x+3/4, -z+3/4'
'y+1/4, -x+1/4, z+3/4'
'-y+1/4, x+3/4, z+1/4'
'x+3/4, z+1/4, -y+1/4'
'-x+1/4, z+3/4, y+1/4'
'-x+3/4, -z+3/4, -y+3/4'
'x+1/4, -z+1/4, y+3/4'
'z+3/4, y+1/4, -x+1/4'
'z+1/4, -y+1/4, x+3/4'
'-z+1/4, y+3/4, x+1/4'
'-z+3/4, -y+3/4, -x+3/4'
'x+1/2, y+1/2, z+1/2'
'-x+1, -y+1/2, z+1'
'-x+1/2, y+1, -z+1'
'x+1, -y+1, -z+1/2'
'z+1/2, x+1/2, y+1/2'
'z+1, -x+1, -y+1/2'
'-z+1, -x+1/2, y+1'
'-z+1/2, x+1, -y+1'
'y+1/2, z+1/2, x+1/2'
'-y+1/2, z+1, -x+1'
'y+1, -z+1, -x+1/2'
'-y+1, -z+1/2, x+1'
'y+5/4, x+3/4, -z+3/4'
'-y+5/4, -x+5/4, -z+5/4'
'y+3/4, -x+3/4, z+5/4'
'-y+3/4, x+5/4, z+3/4'
'x+5/4, z+3/4, -y+3/4'
'-x+3/4, z+5/4, y+3/4'
'-x+5/4, -z+5/4, -y+5/4'
'x+3/4, -z+3/4, y+5/4'
'z+5/4, y+3/4, -x+3/4'
'z+3/4, -y+3/4, x+5/4'
'-z+3/4, y+5/4, x+3/4'
'-z+5/4, -y+5/4, -x+5/4'
'-x, -y, -z'
'x-1/2, y, -z-1/2'
'x, -y-1/2, z-1/2'
'-x-1/2, y-1/2, z'
'-z, -x, -y'
'-z-1/2, x-1/2, y'
'z-1/2, x, -y-1/2'
'z, -x-1/2, y-1/2'
'-y, -z, -x'
'y, -z-1/2, x-1/2'
'-y-1/2, z-1/2, x'
'y-1/2, z, -x-1/2'
'-y-3/4, -x-1/4, z-1/4'
'y-3/4, x-3/4, z-3/4'
'-y-1/4, x-1/4, -z-3/4'
'y-1/4, -x-3/4, -z-1/4'
'-x-3/4, -z-1/4, y-1/4'
'x-1/4, -z-3/4, -y-1/4'
'x-3/4, z-3/4, y-3/4'
'-x-1/4, z-1/4, -y-3/4'
'-z-3/4, -y-1/4, x-1/4'
'-z-1/4, y-1/4, -x-3/4'
'z-1/4, -y-3/4, -x-1/4'
'z-3/4, y-3/4, x-3/4'
'-x+1/2, -y+1/2, -z+1/2'
'x, y+1/2, -z'
'x+1/2, -y, z'
'-x, y, z+1/2'
'-z+1/2, -x+1/2, -y+1/2'
'-z, x, y+1/2'
'z, x+1/2, -y'
'z+1/2, -x, y'
'-y+1/2, -z+1/2, -x+1/2'
'y+1/2, -z, x'
'-y, z, x+1/2'
'y, z+1/2, -x'
'-y-1/4, -x+1/4, z+1/4'
'y-1/4, x-1/4, z-1/4'
'-y+1/4, x+1/4, -z-1/4'
'y+1/4, -x-1/4, -z+1/4'
'-x-1/4, -z+1/4, y+1/4'
'x+1/4, -z-1/4, -y+1/4'
'x-1/4, z-1/4, y-1/4'
'-x+1/4, z+1/4, -y-1/4'
'-z-1/4, -y+1/4, x+1/4'
'-z+1/4, y+1/4, -x-1/4'
'z+1/4, -y-1/4, -x+1/4'
'z-1/4, y-1/4, x-1/4'
loop_
_atom_site_label
_atom_site_type_symbol
_atom_site_fract_x
_atom_site_fract_y
_atom_site_fract_z
_atom_site_U_iso_or_equiv
_atom_site_adp_type
_atom_site_occupancy
_atom_site_symmetry_multiplicity
_atom_site_calc_flag
_atom_site_refinement_flags
_atom_site_disorder_assembly
_atom_site_disorder_group
Yb1 Yb 0.1250 0.0000 0.2500 0.00307(5) Uani 0.76 4 d SP . .
Y1 Y 0.1250 0.0000 0.2500 0.00307(5) Uani 0.24 4 d SP . .
Al1 Al 0.0000 0.0000 0.0000 0.00033(19) Uani 1 6 d S . .
Al2 Al 0.3750 0.0000 0.2500 0.00020(17) Uani 1 4 d S . .
O1 O 0.27982(14) 0.10073(14) 0.19861(14) 0.0027(3) Uani 1 1 d . . .
loop_
_atom_site_aniso_label
_atom_site_aniso_U_11
_atom_site_aniso_U_22
_atom_site_aniso_U_33
_atom_site_aniso_U_23
_atom_site_aniso_U_13
_atom_site_aniso_U_12
Yb1 0.00256(8) 0.00332(6) 0.00332(6) 0.00050(8) 0.000 0.000
Y1 0.00256(8) 0.00332(6) 0.00332(6) 0.00050(8) 0.000 0.000
Al1 0.00033(19) 0.00033(19) 0.00033(19) -0.0003(4) -0.0003(4) -0.0003(4)
Al2 0.0000(4) 0.0003(3) 0.0003(3) 0.000 0.000 0.000
O1 0.0026(6) 0.0033(6) 0.0023(6) 0.0004(5) -0.0001(5) 0.0003(4)
loop_
_atom_type_symbol
_atom_type_description
_atom_type_scat_dispersion_real
_atom_type_scat_dispersion_imag
_atom_type_scat_source
O O 0.0106 0.0060 'International Tables Vol C Tables 4.2.6.8 and 6.1.1.4'
Al Al 0.0645 0.0514 'International Tables Vol C Tables 4.2.6.8 and 6.1.1.4'
Y Y -2.7962 3.5667 'International Tables Vol C Tables 4.2.6.8 and 6.1.1.4'
Yb Yb -0.3850 5.5486 'International Tables Vol C Tables 4.2.6.8 and 6.1.1.4'
loop_
_geom_angle_atom_site_label_1
_geom_angle_atom_site_label_2
_geom_angle_atom_site_label_3
_geom_angle
_geom_angle_site_symmetry_1
_geom_angle_site_symmetry_3
_geom_angle_publ_flag
O1 Yb1 O1 111.74(8) 43_444 . ?
O1 Yb1 O1 159.03(9) 43_444 28_445 ?
O1 Yb1 O1 72.29(8) . 28_445 ?
O1 Yb1 O1 72.29(8) 43_444 18_545 ?
O1 Yb1 O1 159.03(9) . 18_545 ?
O1 Yb1 O1 111.74(8) 28_445 18_545 ?
O1 Yb1 O1 124.97(4) 43_444 16_545 ?
O1 Yb1 O1 95.10(5) . 16_545 ?
O1 Yb1 O1 73.58(7) 28_445 16_545 ?
O1 Yb1 O1 67.70(8) 18_545 16_545 ?
O1 Yb1 O1 95.10(5) 43_444 35_445 ?
O1 Yb1 O1 124.97(4) . 35_445 ?
O1 Yb1 O1 67.70(8) 28_445 35_445 ?
O1 Yb1 O1 73.58(7) 18_545 35_445 ?
O1 Yb1 O1 107.69(8) 16_545 35_445 ?
O1 Yb1 O1 73.58(7) 43_444 9 ?
O1 Yb1 O1 67.70(8) . 9 ?
O1 Yb1 O1 124.97(4) 28_445 9 ?
O1 Yb1 O1 95.10(5) 18_545 9 ?
O1 Yb1 O1 74.04(8) 16_545 9 ?
O1 Yb1 O1 166.22(8) 35_445 9 ?
O1 Yb1 O1 67.70(8) 43_444 38_444 ?
O1 Yb1 O1 73.58(7) . 38_444 ?
O1 Yb1 O1 95.10(5) 28_445 38_444 ?
O1 Yb1 O1 124.97(4) 18_545 38_444 ?
O1 Yb1 O1 166.22(8) 16_545 38_444 ?
O1 Yb1 O1 74.04(8) 35_445 38_444 ?
O1 Yb1 O1 107.69(8) 9 38_444 ?
O1 Yb1 Al2 143.86(4) 43_444 . ?
O1 Yb1 Al2 36.14(4) . . ?
O1 Yb1 Al2 36.14(4) 28_445 . ?
O1 Yb1 Al2 143.86(4) 18_545 . ?
O1 Yb1 Al2 83.11(4) 16_545 . ?
O1 Yb1 Al2 96.89(4) 35_445 . ?
O1 Yb1 Al2 96.89(4) 9 . ?
O1 Yb1 Al2 83.11(4) 38_444 . ?
O1 Yb1 Al2 36.14(4) 43_444 50_556 ?
O1 Yb1 Al2 143.86(4) . 50_556 ?
O1 Yb1 Al2 143.86(4) 28_445 50_556 ?
O1 Yb1 Al2 36.14(4) 18_545 50_556 ?
O1 Yb1 Al2 96.89(4) 16_545 50_556 ?
O1 Yb1 Al2 83.11(4) 35_445 50_556 ?
O1 Yb1 Al2 83.11(4) 9 50_556 ?
O1 Yb1 Al2 96.89(4) 38_444 50_556 ?
Al2 Yb1 Al2 180.0 . 50_556 ?
O1 Yb1 Al1 33.79(4) 43_444 . ?
O1 Yb1 Al1 96.97(4) . . ?
O1 Yb1 Al1 126.93(4) 28_445 . ?
O1 Yb1 Al1 96.25(4) 18_545 . ?
O1 Yb1 Al1 158.71(4) 16_545 . ?
O1 Yb1 Al1 79.31(4) 35_445 . ?
O1 Yb1 Al1 94.48(4) 9 . ?
O1 Yb1 Al1 34.47(4) 38_444 . ?
Al2 Yb1 Al1 116.6 . . ?
Al2 Yb1 Al1 63.4 50_556 . ?
O1 Yb1 Al1 96.97(4) 43_444 38_444 ?
O1 Yb1 Al1 33.79(4) . 38_444 ?
O1 Yb1 Al1 96.25(4) 28_445 38_444 ?
O1 Yb1 Al1 126.93(4) 18_545 38_444 ?
O1 Yb1 Al1 79.31(4) 16_545 38_444 ?
O1 Yb1 Al1 158.71(4) 35_445 38_444 ?
O1 Yb1 Al1 34.47(4) 9 38_444 ?
O1 Yb1 Al1 94.48(4) 38_444 38_444 ?
Al2 Yb1 Al1 63.4 . 38_444 ?
Al2 Yb1 Al1 116.6 50_556 38_444 ?
Al1 Yb1 Al1 101.5 . 38_444 ?
O1 Al1 O1 180.00(14) 96 48_444 ?
O1 Al1 O1 86.25(7) 96 91 ?
O1 Al1 O1 93.75(7) 48_444 91 ?
O1 Al1 O1 93.75(8) 96 38_444 ?
O1 Al1 O1 86.25(8) 48_444 38_444 ?
O1 Al1 O1 93.75(7) 91 38_444 ?
O1 Al1 O1 93.75(7) 96 43_444 ?
O1 Al1 O1 86.25(7) 48_444 43_444 ?
O1 Al1 O1 180.00(11) 91 43_444 ?
O1 Al1 O1 86.25(8) 38_444 43_444 ?
O1 Al1 O1 86.25(8) 96 86 ?
O1 Al1 O1 93.75(8) 48_444 86 ?
O1 Al1 O1 86.25(7) 91 86 ?
O1 Al1 O1 180.00(14) 38_444 86 ?
O1 Al1 O1 93.75(7) 43_444 86 ?
O1 Al1 Yb1 88.69(5) 96 . ?
O1 Al1 Yb1 91.31(5) 48_444 . ?
O1 Al1 Yb1 138.42(5) 91 . ?
O1 Al1 Yb1 45.44(5) 38_444 . ?
O1 Al1 Yb1 41.58(5) 43_444 . ?
O1 Al1 Yb1 134.56(5) 86 . ?
O1 Al1 Yb1 45.44(5) 96 53 ?
O1 Al1 Yb1 134.56(5) 48_444 53 ?
O1 Al1 Yb1 91.31(5) 91 53 ?
O1 Al1 Yb1 138.42(5) 38_444 53 ?
O1 Al1 Yb1 88.69(5) 43_444 53 ?
O1 Al1 Yb1 41.58(5) 86 53 ?
Yb1 Al1 Yb1 113.6 . 53 ?
O1 Al1 Yb1 138.42(5) 96 9 ?
O1 Al1 Yb1 41.58(5) 48_444 9 ?
O1 Al1 Yb1 134.56(5) 91 9 ?
O1 Al1 Yb1 91.31(5) 38_444 9 ?
O1 Al1 Yb1 45.44(5) 43_444 9 ?
O1 Al1 Yb1 88.69(5) 86 9 ?
Yb1 Al1 Yb1 66.4 . 9 ?
Yb1 Al1 Yb1 113.6 53 9 ?
O1 Al1 Yb1 41.58(5) 96 57 ?
O1 Al1 Yb1 138.42(5) 48_444 57 ?
O1 Al1 Yb1 45.44(5) 91 57 ?
O1 Al1 Yb1 88.69(5) 38_444 57 ?
O1 Al1 Yb1 134.56(5) 43_444 57 ?
O1 Al1 Yb1 91.31(5) 86 57 ?
Yb1 Al1 Yb1 113.6 . 57 ?
Yb1 Al1 Yb1 66.4 53 57 ?
Yb1 Al1 Yb1 180.0 9 57 ?
O1 Al1 Y1 91.31(5) 96 49 ?
O1 Al1 Y1 88.69(5) 48_444 49 ?
O1 Al1 Y1 41.58(5) 91 49 ?
O1 Al1 Y1 134.56(5) 38_444 49 ?
O1 Al1 Y1 138.42(5) 43_444 49 ?
O1 Al1 Y1 45.44(5) 86 49 ?
Yb1 Al1 Y1 180.0 . 49 ?
Yb1 Al1 Y1 66.4 53 49 ?
Yb1 Al1 Y1 113.6 9 49 ?
Yb1 Al1 Y1 66.4 57 49 ?
O1 Al1 Y1 134.56(5) 96 5 ?
O1 Al1 Y1 45.44(5) 48_444 5 ?
O1 Al1 Y1 88.69(5) 91 5 ?
O1 Al1 Y1 41.58(5) 38_444 5 ?
O1 Al1 Y1 91.31(5) 43_444 5 ?
O1 Al1 Y1 138.42(5) 86 5 ?
Yb1 Al1 Y1 66.4 . 5 ?
Yb1 Al1 Y1 180.0 53 5 ?
Yb1 Al1 Y1 66.4 9 5 ?
Yb1 Al1 Y1 113.6 57 5 ?
Y1 Al1 Y1 113.6 49 5 ?
O1 Al1 Y1 45.44(5) 96 53 ?
O1 Al1 Y1 134.56(5) 48_444 53 ?
O1 Al1 Y1 91.31(5) 91 53 ?
O1 Al1 Y1 138.42(5) 38_444 53 ?
O1 Al1 Y1 88.69(5) 43_444 53 ?
O1 Al1 Y1 41.58(5) 86 53 ?
Yb1 Al1 Y1 113.6 . 53 ?
Yb1 Al1 Y1 0.0 53 53 ?
Yb1 Al1 Y1 113.6 9 53 ?
Yb1 Al1 Y1 66.4 57 53 ?
Y1 Al1 Y1 66.4 49 53 ?
Y1 Al1 Y1 180.0 5 53 ?
O1 Al1 Y1 138.42(5) 96 9 ?
O1 Al1 Y1 41.58(5) 48_444 9 ?
O1 Al1 Y1 134.56(5) 91 9 ?
O1 Al1 Y1 91.31(5) 38_444 9 ?
O1 Al1 Y1 45.44(5) 43_444 9 ?
O1 Al1 Y1 88.69(5) 86 9 ?
Yb1 Al1 Y1 66.4 . 9 ?
Yb1 Al1 Y1 113.6 53 9 ?
Yb1 Al1 Y1 0.0 9 9 ?
Yb1 Al1 Y1 180.0 57 9 ?
Y1 Al1 Y1 113.6 49 9 ?
Y1 Al1 Y1 66.4 5 9 ?
Y1 Al1 Y1 113.6 53 9 ?
O1 Al1 Y1 41.58(5) 96 57 ?
O1 Al1 Y1 138.42(5) 48_444 57 ?
O1 Al1 Y1 45.44(5) 91 57 ?
O1 Al1 Y1 88.69(5) 38_444 57 ?
O1 Al1 Y1 134.56(5) 43_444 57 ?
O1 Al1 Y1 91.31(5) 86 57 ?
Yb1 Al1 Y1 113.6 . 57 ?
Yb1 Al1 Y1 66.4 53 57 ?
Yb1 Al1 Y1 180.0 9 57 ?
Yb1 Al1 Y1 0.0 57 57 ?
Y1 Al1 Y1 66.4 49 57 ?
Y1 Al1 Y1 113.6 5 57 ?
Y1 Al1 Y1 66.4 53 57 ?
Y1 Al1 Y1 180.0 9 57 ?
O1 Al1 Yb1 134.56(5) 96 5 ?
O1 Al1 Yb1 45.44(5) 48_444 5 ?
O1 Al1 Yb1 88.69(5) 91 5 ?
O1 Al1 Yb1 41.58(5) 38_444 5 ?
O1 Al1 Yb1 91.31(5) 43_444 5 ?
O1 Al1 Yb1 138.42(5) 86 5 ?
Yb1 Al1 Yb1 66.4 . 5 ?
Yb1 Al1 Yb1 180.0 53 5 ?
Yb1 Al1 Yb1 66.4 9 5 ?
Yb1 Al1 Yb1 113.6 57 5 ?
Y1 Al1 Yb1 113.6 49 5 ?
Y1 Al1 Yb1 0.0 5 5 ?
Y1 Al1 Yb1 180.0 53 5 ?
Y1 Al1 Yb1 66.4 9 5 ?
Y1 Al1 Yb1 113.6 57 5 ?
O1 Al1 Yb1 91.31(5) 96 49 ?
O1 Al1 Yb1 88.69(5) 48_444 49 ?
O1 Al1 Yb1 41.58(5) 91 49 ?
O1 Al1 Yb1 134.56(5) 38_444 49 ?
O1 Al1 Yb1 138.42(5) 43_444 49 ?
O1 Al1 Yb1 45.44(5) 86 49 ?
Yb1 Al1 Yb1 180.0 . 49 ?
Yb1 Al1 Yb1 66.4 53 49 ?
Yb1 Al1 Yb1 113.6 9 49 ?
Yb1 Al1 Yb1 66.4 57 49 ?
Y1 Al1 Yb1 0.0 49 49 ?
Y1 Al1 Yb1 113.6 5 49 ?
Y1 Al1 Yb1 66.4 53 49 ?
Y1 Al1 Yb1 113.6 9 49 ?
Y1 Al1 Yb1 66.4 57 49 ?
Yb1 Al1 Yb1 113.6 5 49 ?
O1 Al1 O1 114.14(6) 96 . ?
O1 Al1 O1 65.86(6) 48_444 . ?
O1 Al1 O1 117.44(7) 91 . ?
O1 Al1 O1 31.53(5) 38_444 . ?
O1 Al1 O1 62.56(7) 43_444 . ?
O1 Al1 O1 148.47(5) 86 . ?
Yb1 Al1 O1 32.15(2) . . ?
Yb1 Al1 O1 145.67(2) 53 . ?
Yb1 Al1 O1 59.98(2) 9 . ?
Yb1 Al1 O1 120.02(2) 57 . ?
Y1 Al1 O1 147.85(2) 49 . ?
Y1 Al1 O1 34.33(2) 5 . ?
Y1 Al1 O1 145.67(2) 53 . ?
Y1 Al1 O1 59.98(2) 9 . ?
Y1 Al1 O1 120.02(2) 57 . ?
Yb1 Al1 O1 34.33(2) 5 . ?
Yb1 Al1 O1 147.85(2) 49 . ?
O1 Al1 Al1 127.88(5) 96 49_666 ?
O1 Al1 Al1 52.12(5) 48_444 49_666 ?
O1 Al1 Al1 127.88(5) 91 49_666 ?
O1 Al1 Al1 52.12(5) 38_444 49_666 ?
O1 Al1 Al1 52.12(5) 43_444 49_666 ?
O1 Al1 Al1 127.88(5) 86 49_666 ?
Yb1 Al1 Al1 39.2 . 49_666 ?
Yb1 Al1 Al1 140.8 53 49_666 ?
Yb1 Al1 Al1 39.2 9 49_666 ?
Yb1 Al1 Al1 140.8 57 49_666 ?
Y1 Al1 Al1 140.8 49 49_666 ?
Y1 Al1 Al1 39.2 5 49_666 ?
Y1 Al1 Al1 140.8 53 49_666 ?
Y1 Al1 Al1 39.2 9 49_666 ?
Y1 Al1 Al1 140.8 57 49_666 ?
Yb1 Al1 Al1 39.2 5 49_666 ?
Yb1 Al1 Al1 140.8 49 49_666 ?
O1 Al1 Al1 20.77(2) . 49_666 ?
O1 Al2 O1 114.50(6) 89_655 28_445 ?
O1 Al2 O1 114.50(6) 89_655 . ?
O1 Al2 O1 99.82(11) 28_445 . ?
O1 Al2 O1 99.82(11) 89_655 68_656 ?
O1 Al2 O1 114.50(6) 28_445 68_656 ?
O1 Al2 O1 114.50(6) . 68_656 ?
O1 Al2 Yb1 130.09(6) 89_655 . ?
O1 Al2 Yb1 49.91(6) 28_445 . ?
O1 Al2 Yb1 49.91(6) . . ?
O1 Al2 Yb1 130.09(6) 68_656 . ?
O1 Al2 Y1 49.91(6) 89_655 50_656 ?
O1 Al2 Y1 130.09(6) 28_445 50_656 ?
O1 Al2 Y1 130.09(6) . 50_656 ?
O1 Al2 Y1 49.91(6) 68_656 50_656 ?
Yb1 Al2 Y1 180.0 . 50_656 ?
O1 Al2 Yb1 49.91(6) 89_655 50_656 ?
O1 Al2 Yb1 130.09(6) 28_445 50_656 ?
O1 Al2 Yb1 130.09(6) . 50_656 ?
O1 Al2 Yb1 49.91(6) 68_656 50_656 ?
Yb1 Al2 Yb1 180.0 . 50_656 ?
Y1 Al2 Yb1 0.0 50_656 50_656 ?
O1 Al2 O1 144.85(5) 89_655 54_655 ?
O1 Al2 O1 58.17(8) 28_445 54_655 ?
O1 Al2 O1 100.60(5) . 54_655 ?
O1 Al2 O1 61.69(8) 68_656 54_655 ?
Yb1 Al2 O1 74.53(3) . 54_655 ?
Y1 Al2 O1 105.47(3) 50_656 54_655 ?
Yb1 Al2 O1 105.47(3) 50_656 54_655 ?
O1 Al2 O1 61.69(8) 89_655 77 ?
O1 Al2 O1 100.60(5) 28_445 77 ?
O1 Al2 O1 58.17(8) . 77 ?
O1 Al2 O1 144.85(5) 68_656 77 ?
Yb1 Al2 O1 74.53(3) . 77 ?
Y1 Al2 O1 105.47(3) 50_656 77 ?
Yb1 Al2 O1 105.47(3) 50_656 77 ?
O1 Al2 O1 149.07(6) 54_655 77 ?
O1 Al2 O1 58.17(8) 89_655 45_445 ?
O1 Al2 O1 61.69(8) 28_445 45_445 ?
O1 Al2 O1 144.85(5) . 45_445 ?
O1 Al2 O1 100.60(5) 68_656 45_445 ?
Yb1 Al2 O1 105.47(3) . 45_445 ?
Y1 Al2 O1 74.53(3) 50_656 45_445 ?
Yb1 Al2 O1 74.53(3) 50_656 45_445 ?
O1 Al2 O1 94.078(15) 54_655 45_445 ?
O1 Al2 O1 94.078(15) 77 45_445 ?
O1 Al2 O1 100.60(5) 89_655 22_554 ?
O1 Al2 O1 144.85(5) 28_445 22_554 ?
O1 Al2 O1 61.69(8) . 22_554 ?
O1 Al2 O1 58.17(8) 68_656 22_554 ?
Yb1 Al2 O1 105.47(3) . 22_554 ?
Y1 Al2 O1 74.53(3) 50_656 22_554 ?
Yb1 Al2 O1 74.53(3) 50_656 22_554 ?
O1 Al2 O1 94.078(15) 54_655 22_554 ?
O1 Al2 O1 94.078(16) 77 22_554 ?
O1 Al2 O1 149.07(6) 45_445 22_554 ?
Al2 O1 Al1 129.90(10) . 38_444 ?
Al2 O1 Yb1 93.94(7) . . ?
Al1 O1 Yb1 104.63(7) 38_444 . ?
Al2 O1 Y1 121.20(8) . 5 ?
Al1 O1 Y1 100.09(7) 38_444 5 ?
Yb1 O1 Y1 101.96(7) . 5 ?
Al2 O1 Yb1 121.20(8) . 5 ?
Al1 O1 Yb1 100.09(7) 38_444 5 ?
Yb1 O1 Yb1 101.96(7) . 5 ?
Y1 O1 Yb1 0.0 5 5 ?
Al2 O1 O1 161.56(10) . 5 ?
Al1 O1 O1 46.87(4) 38_444 5 ?
Yb1 O1 O1 104.43(5) . 5 ?
Y1 O1 O1 53.86(6) 5 5 ?
Yb1 O1 O1 53.86(6) 5 5 ?
Al2 O1 O1 134.44(12) . 9 ?
Al1 O1 O1 46.87(4) 38_444 9 ?
Yb1 O1 O1 58.44(7) . 9 ?
Y1 O1 O1 100.91(5) 5 9 ?
Yb1 O1 O1 100.91(5) 5 9 ?
O1 O1 O1 60.0 5 9 ?
Al2 O1 O1 40.09(6) . 28_445 ?
Al1 O1 O1 133.02(11) 38_444 28_445 ?
Yb1 O1 O1 53.86(4) . 28_445 ?
Y1 O1 O1 123.58(10) 5 28_445 ?
Yb1 O1 O1 123.58(10) 5 28_445 ?
O1 O1 O1 158.24(4) 5 28_445 ?
O1 O1 O1 103.23(9) 9 28_445 ?
Al2 O1 O1 102.89(9) . 81 ?
Al1 O1 O1 43.13(4) 38_444 81 ?
Yb1 O1 O1 146.74(6) . 81 ?
Y1 O1 O1 93.60(5) 5 81 ?
Yb1 O1 O1 93.60(5) 5 81 ?
O1 O1 O1 62.08(4) 5 81 ?
O1 O1 O1 90.0 9 81 ?
O1 O1 O1 136.08(8) 28_445 81 ?
Al2 O1 O1 89.45(8) . 77 ?
Al1 O1 O1 43.13(4) 38_444 77 ?
Yb1 O1 O1 96.46(5) . 77 ?
Y1 O1 O1 142.42(6) 5 77 ?
Yb1 O1 O1 142.42(6) 5 77 ?
O1 O1 O1 90.0 5 77 ?
O1 O1 O1 62.08(4) 9 77 ?
O1 O1 O1 93.72(9) 28_445 77 ?
O1 O1 O1 55.85(8) 81 77 ?
Al2 O1 O1 101.30(6) . 38_444 ?
Al1 O1 O1 127.62(5) 38_444 38_444 ?
Yb1 O1 O1 55.26(6) . 38_444 ?
Y1 O1 O1 51.15(5) 5 38_444 ?
Yb1 O1 O1 51.15(5) 5 38_444 ?
O1 O1 O1 88.20(4) 5 38_444 ?
O1 O1 O1 91.50(3) 9 38_444 ?
O1 O1 O1 77.93(6) 28_445 38_444 ?
O1 O1 O1 144.29(8) 81 38_444 ?
O1 O1 O1 149.99(7) 77 38_444 ?
Al2 O1 O1 86.02(7) . 22_554 ?
Al1 O1 O1 99.50(9) 38_444 22_554 ?
Yb1 O1 O1 148.21(8) . 22_554 ?
Y1 O1 O1 52.98(4) 5 22_554 ?
Yb1 O1 O1 52.98(4) 5 22_554 ?
O1 O1 O1 77.58(9) 5 22_554 ?
O1 O1 O1 137.08(9) 9 22_554 ?
O1 O1 O1 119.50(9) 28_445 22_554 ?
O1 O1 O1 62.63(7) 81 22_554 ?
O1 O1 O1 115.32(7) 77 22_554 ?
O1 O1 O1 93.51(7) 38_444 22_554 ?
Al2 O1 O1 32.75(3) . 89_655 ?
Al1 O1 O1 97.51(9) 38_444 89_655 ?
Yb1 O1 O1 110.49(6) . 89_655 ?
Y1 O1 O1 137.51(9) 5 89_655 ?
Yb1 O1 O1 137.51(9) 5 89_655 ?
O1 O1 O1 135.85(5) 5 89_655 ?
O1 O1 O1 119.11(9) 9 89_655 ?
O1 O1 O1 62.95(3) 28_445 89_655 ?
O1 O1 O1 73.95(9) 81 89_655 ?
O1 O1 O1 60.47(8) 77 89_655 ?
O1 O1 O1 134.03(4) 38_444 89_655 ?
O1 O1 O1 86.16(5) 22_554 89_655 ?
Al2 O1 O1 32.75(3) . 68_656 ?
Al1 O1 O1 140.72(10) 38_444 68_656 ?
Yb1 O1 O1 110.49(6) . 68_656 ?
Y1 O1 O1 89.51(7) 5 68_656 ?
Yb1 O1 O1 89.51(7) 5 68_656 ?
O1 O1 O1 133.91(11) 5 68_656 ?
O1 O1 O1 166.00(11) 9 68_656 ?
O1 O1 O1 62.95(3) 28_445 68_656 ?
O1 O1 O1 98.73(9) 81 68_656 ?
O1 O1 O1 114.27(8) 77 68_656 ?
O1 O1 O1 87.78(5) 38_444 68_656 ?
O1 O1 O1 56.90(8) 22_554 68_656 ?
O1 O1 O1 54.11(7) 89_655 68_656 ?
Al2 O1 Al2 87.00(6) . 81 ?
Al1 O1 Al2 74.39(5) 38_444 81 ?
Yb1 O1 Al2 178.95(7) . 81 ?
Y1 O1 Al2 77.93(5) 5 81 ?
Yb1 O1 Al2 77.93(5) 5 81 ?
O1 O1 Al2 74.64(6) 5 81 ?
O1 O1 Al2 120.53(5) 9 81 ?
O1 O1 Al2 127.08(3) 28_445 81 ?
O1 O1 Al2 32.38(4) 81 81 ?
O1 O1 Al2 83.07(6) 77 81 ?
O1 O1 Al2 125.01(9) 38_444 81 ?
O1 O1 Al2 32.29(4) 22_554 81 ?
O1 O1 Al2 70.10(7) 89_655 81 ?
O1 O1 Al2 70.56(7) 68_656 81 ?
loop_
_geom_bond_atom_site_label_1
_geom_bond_atom_site_label_2
_geom_bond_distance
_geom_bond_site_symmetry_2
_geom_bond_publ_flag
Yb1 O1 2.2896(18) 43_444 ?
Yb1 O1 2.2896(18) . ?
Yb1 O1 2.2896(18) 28_445 ?
Yb1 O1 2.2896(18) 18_545 ?
Yb1 O1 2.4160(17) 16_545 ?
Yb1 O1 2.4159(17) 35_445 ?
Yb1 O1 2.4160(17) 9 ?
Yb1 O1 2.4160(17) 38_444 ?
Yb1 Al2 2.9857(4) . ?
Yb1 Al2 2.9857(4) 50_556 ?
Yb1 Al1 3.3381(4) . ?
Yb1 Al1 3.3381(4) 38_444 ?
Al1 O1 1.9187(17) 96 ?
Al1 O1 1.9187(17) 48_444 ?
Al1 O1 1.9187(17) 91 ?
Al1 O1 1.9187(17) 38_444 ?
Al1 O1 1.9187(17) 43_444 ?
Al1 O1 1.9187(17) 86 ?
Al1 Yb1 3.3381(4) 53 ?
Al1 Yb1 3.3381(4) 9 ?
Al1 Yb1 3.3381(4) 57 ?
Al1 Y1 3.3381(4) 49 ?
Al1 Y1 3.3381(4) 5 ?
Al1 Y1 3.3381(4) 53 ?
Al1 Y1 3.3381(4) 9 ?
Al1 Y1 3.3381(4) 57 ?
Al1 Yb1 3.3381(4) 5 ?
Al1 Yb1 3.3381(4) 49 ?
Al1 O1 4.2709(18) . ?
Al1 Al1 20.685(2) 49_666 ?
Al2 O1 1.7652(17) 89_655 ?
Al2 O1 1.7652(17) 28_445 ?
Al2 O1 1.7652(17) . ?
Al2 O1 1.7652(17) 68_656 ?
Al2 Y1 2.9857(4) 50_656 ?
Al2 Yb1 2.9857(4) 50_656 ?
Al2 O1 3.2963(18) 54_655 ?
Al2 O1 3.2963(18) 77 ?
Al2 O1 3.2963(18) 45_445 ?
Al2 O1 3.2963(18) 22_554 ?
O1 Al1 1.9187(17) 38_444 ?
O1 Y1 2.4160(17) 5 ?
O1 Yb1 2.4160(17) 5 ?
O1 O1 2.623(3) 5 ?
O1 O1 2.623(3) 9 ?
O1 O1 2.701(3) 28_445 ?
O1 O1 2.801(3) 81 ?
O1 O1 2.801(3) 77 ?
O1 O1 2.820(4) 38_444 ?
O1 O1 2.909(3) 22_554 ?
O1 O1 2.969(3) 89_655 ?
O1 O1 2.969(3) 68_656 ?
O1 Al2 3.2963(18) 81 ?
loop_
_geom_torsion_atom_site_label_1
_geom_torsion_atom_site_label_2
_geom_torsion_atom_site_label_3
_geom_torsion_atom_site_label_4
_geom_torsion
_geom_torsion_site_symmetry_1
_geom_torsion_site_symmetry_2
_geom_torsion_site_symmetry_3
_geom_torsion_site_symmetry_4
_geom_torsion_publ_flag
Al1 Al1 Al1 O1 3.08(6) ? . 49_666 43_444 ?
