#------------------------------------------------------------------------------
#$Date: 2016-03-23 01:54:03 +0200 (Wed, 23 Mar 2016) $
#$Revision: 179160 $
#$URL: svn://www.crystallography.net/cod/cif/4/31/21/4312151.cif $
#------------------------------------------------------------------------------
#
# This file is available in the Crystallography Open Database (COD),
# http://www.crystallography.net/
#
# All data on this site have been placed in the public domain by the
# contributors.
#
data_4312151
loop_
_publ_author_name
'\/Lukasz Dobrzycki'
'Ewa Bulska'
'Dorota Anna Pawlak'
'Zygmunt Frukacz'
'Krzysztof Wo\'zniak'
_publ_section_title
;
 Structure of YAG Crystals Doped/Substituted with Erbium and Ytterbium
;
_journal_name_full               'Inorganic Chemistry'
_journal_page_first              7656
_journal_page_last               7664
_journal_paper_doi               10.1021/ic049920z
_journal_volume                  43
_journal_year                    2004
_chemical_formula_sum            'Al5 O12 Y0.72 Yb2.28'
_chemical_formula_weight         785.24
_chemical_name_systematic
; 
 ? 
;
_space_group_IT_number           230
_symmetry_cell_setting           cubic
_symmetry_space_group_name_Hall  '-I 4bd 2c 3'
_symmetry_space_group_name_H-M   'I a -3 d'
_atom_sites_solution_hydrogens   geom
_atom_sites_solution_primary     direct
_atom_sites_solution_secondary   difmap
_audit_creation_method           SHELXL-97
_cell_angle_alpha                90.00
_cell_angle_beta                 90.00
_cell_angle_gamma                90.00
_cell_formula_units_Z            8
_cell_length_a                   11.9531(14)
_cell_length_b                   11.9531(14)
_cell_length_c                   11.9531(14)
_cell_measurement_temperature    293(2)
_cell_volume                     1707.8(3)
_computing_structure_refinement  'SHELXL-97 (Sheldrick, 1997)'
_computing_structure_solution    'SHELXS-97 (Sheldrick, 1990)'
_diffrn_ambient_temperature      293(2)
_diffrn_measured_fraction_theta_full 1.000
_diffrn_measured_fraction_theta_max 1.000
_diffrn_radiation_monochromator  graphite
_diffrn_radiation_source         'fine-focus sealed tube'
_diffrn_radiation_type           MoK\a
_diffrn_radiation_wavelength     0.71073
_diffrn_reflns_av_R_equivalents  0.0000
_diffrn_reflns_av_sigmaI/netI    0.0579
_diffrn_reflns_limit_h_max       12
_diffrn_reflns_limit_h_min       0
_diffrn_reflns_limit_k_max       15
_diffrn_reflns_limit_k_min       0
_diffrn_reflns_limit_l_max       21
_diffrn_reflns_limit_l_min       2
_diffrn_reflns_number            454
_diffrn_reflns_theta_full        40.13
_diffrn_reflns_theta_max         40.13
_diffrn_reflns_theta_min         4.18
_exptl_absorpt_coefficient_mu    30.203
_exptl_crystal_density_diffrn    6.108
_exptl_crystal_density_method    'not measured'
_exptl_crystal_F_000             2789
_refine_diff_density_max         1.237
_refine_diff_density_min         -0.907
_refine_diff_density_rms         0.178
_refine_ls_extinction_coef       0.000508(12)
_refine_ls_extinction_expression Fc^*^=kFc[1+0.001xFc^2^\l^3^/sin(2\q)]^-1/4^
_refine_ls_extinction_method     SHELXL
_refine_ls_goodness_of_fit_ref   0.433
_refine_ls_hydrogen_treatment    mixed
_refine_ls_matrix_type           full
_refine_ls_number_parameters     18
_refine_ls_number_reflns         454
_refine_ls_number_restraints     0
_refine_ls_restrained_S_all      0.433
_refine_ls_R_factor_all          0.0311
_refine_ls_R_factor_gt           0.0122
_refine_ls_shift/su_max          0.000
_refine_ls_shift/su_mean         0.000
_refine_ls_structure_factor_coef Fsqd
_refine_ls_weighting_details
'calc w=1/[\s^2^(Fo^2^)+(0.0000P)^2^+0.0000P] where P=(Fo^2^+2Fc^2^)/3'
_refine_ls_weighting_scheme      calc
_refine_ls_wR_factor_gt          0.0225
_refine_ls_wR_factor_ref         0.0253
_reflns_number_gt                307
_reflns_number_total             454
_reflns_threshold_expression     >2sigma(I)
_cod_data_source_file            ic049920zsi20040119_085908_24.cif
_cod_data_source_block           yb75
_cod_database_code               4312151
loop_
_symmetry_equiv_pos_as_xyz
'x, y, z'
'-x+1/2, -y, z+1/2'
'-x, y+1/2, -z+1/2'
'x+1/2, -y+1/2, -z'
'z, x, y'
'z+1/2, -x+1/2, -y'
'-z+1/2, -x, y+1/2'
'-z, x+1/2, -y+1/2'
'y, z, x'
'-y, z+1/2, -x+1/2'
'y+1/2, -z+1/2, -x'
'-y+1/2, -z, x+1/2'
'y+3/4, x+1/4, -z+1/4'
'-y+3/4, -x+3/4, -z+3/4'
'y+1/4, -x+1/4, z+3/4'
'-y+1/4, x+3/4, z+1/4'
'x+3/4, z+1/4, -y+1/4'
'-x+1/4, z+3/4, y+1/4'
'-x+3/4, -z+3/4, -y+3/4'
'x+1/4, -z+1/4, y+3/4'
'z+3/4, y+1/4, -x+1/4'
'z+1/4, -y+1/4, x+3/4'
'-z+1/4, y+3/4, x+1/4'
'-z+3/4, -y+3/4, -x+3/4'
'x+1/2, y+1/2, z+1/2'
'-x+1, -y+1/2, z+1'
'-x+1/2, y+1, -z+1'
'x+1, -y+1, -z+1/2'
'z+1/2, x+1/2, y+1/2'
'z+1, -x+1, -y+1/2'
'-z+1, -x+1/2, y+1'
'-z+1/2, x+1, -y+1'
'y+1/2, z+1/2, x+1/2'
'-y+1/2, z+1, -x+1'
'y+1, -z+1, -x+1/2'
'-y+1, -z+1/2, x+1'
'y+5/4, x+3/4, -z+3/4'
'-y+5/4, -x+5/4, -z+5/4'
'y+3/4, -x+3/4, z+5/4'
'-y+3/4, x+5/4, z+3/4'
'x+5/4, z+3/4, -y+3/4'
'-x+3/4, z+5/4, y+3/4'
'-x+5/4, -z+5/4, -y+5/4'
'x+3/4, -z+3/4, y+5/4'
'z+5/4, y+3/4, -x+3/4'
'z+3/4, -y+3/4, x+5/4'
'-z+3/4, y+5/4, x+3/4'
'-z+5/4, -y+5/4, -x+5/4'
'-x, -y, -z'
'x-1/2, y, -z-1/2'
'x, -y-1/2, z-1/2'
'-x-1/2, y-1/2, z'
'-z, -x, -y'
'-z-1/2, x-1/2, y'
'z-1/2, x, -y-1/2'
'z, -x-1/2, y-1/2'
'-y, -z, -x'
'y, -z-1/2, x-1/2'
'-y-1/2, z-1/2, x'
'y-1/2, z, -x-1/2'
'-y-3/4, -x-1/4, z-1/4'
'y-3/4, x-3/4, z-3/4'
'-y-1/4, x-1/4, -z-3/4'
'y-1/4, -x-3/4, -z-1/4'
'-x-3/4, -z-1/4, y-1/4'
'x-1/4, -z-3/4, -y-1/4'
'x-3/4, z-3/4, y-3/4'
'-x-1/4, z-1/4, -y-3/4'
'-z-3/4, -y-1/4, x-1/4'
'-z-1/4, y-1/4, -x-3/4'
'z-1/4, -y-3/4, -x-1/4'
'z-3/4, y-3/4, x-3/4'
'-x+1/2, -y+1/2, -z+1/2'
'x, y+1/2, -z'
'x+1/2, -y, z'
'-x, y, z+1/2'
'-z+1/2, -x+1/2, -y+1/2'
'-z, x, y+1/2'
'z, x+1/2, -y'
'z+1/2, -x, y'
'-y+1/2, -z+1/2, -x+1/2'
'y+1/2, -z, x'
'-y, z, x+1/2'
'y, z+1/2, -x'
'-y-1/4, -x+1/4, z+1/4'
'y-1/4, x-1/4, z-1/4'
'-y+1/4, x+1/4, -z-1/4'
'y+1/4, -x-1/4, -z+1/4'
'-x-1/4, -z+1/4, y+1/4'
'x+1/4, -z-1/4, -y+1/4'
'x-1/4, z-1/4, y-1/4'
'-x+1/4, z+1/4, -y-1/4'
'-z-1/4, -y+1/4, x+1/4'
'-z+1/4, y+1/4, -x-1/4'
'z+1/4, -y-1/4, -x+1/4'
'z-1/4, y-1/4, x-1/4'
loop_
_atom_site_label
_atom_site_type_symbol
_atom_site_fract_x
_atom_site_fract_y
_atom_site_fract_z
_atom_site_U_iso_or_equiv
_atom_site_adp_type
_atom_site_occupancy
_atom_site_symmetry_multiplicity
_atom_site_calc_flag
_atom_site_refinement_flags
_atom_site_disorder_assembly
_atom_site_disorder_group
Yb1 Yb 0.1250 0.0000 0.2500 0.00502(5) Uani 0.76 4 d SP . .
Y1 Y 0.1250 0.0000 0.2500 0.00502(5) Uani 0.24 4 d SP . .
Al1 Al 0.0000 0.0000 0.0000 0.0017(2) Uani 1 6 d S . .
Al2 Al 0.3750 0.0000 0.2500 0.00128(19) Uani 1 4 d S . .
O1 O 0.27967(15) 0.10067(15) 0.19900(15) 0.0044(3) Uani 1 1 d . . .
loop_
_atom_site_aniso_label
_atom_site_aniso_U_11
_atom_site_aniso_U_22
_atom_site_aniso_U_33
_atom_site_aniso_U_23
_atom_site_aniso_U_13
_atom_site_aniso_U_12
Yb1 0.00384(9) 0.00562(7) 0.00562(7) 0.00089(9) 0.000 0.000
Y1 0.00384(9) 0.00562(7) 0.00562(7) 0.00089(9) 0.000 0.000
Al1 0.0017(2) 0.0017(2) 0.0017(2) -0.0004(4) -0.0004(4) -0.0004(4)
Al2 0.0004(5) 0.0017(3) 0.0017(3) 0.000 0.000 0.000
O1 0.0029(6) 0.0053(6) 0.0049(6) 0.0006(5) 0.0007(5) 0.0008(5)
loop_
_atom_type_symbol
_atom_type_description
_atom_type_scat_dispersion_real
_atom_type_scat_dispersion_imag
_atom_type_scat_source
O O 0.0106 0.0060 'International Tables Vol C Tables 4.2.6.8 and 6.1.1.4'
Al Al 0.0645 0.0514 'International Tables Vol C Tables 4.2.6.8 and 6.1.1.4'
Y Y -2.7962 3.5667 'International Tables Vol C Tables 4.2.6.8 and 6.1.1.4'
Yb Yb -0.3850 5.5486 'International Tables Vol C Tables 4.2.6.8 and 6.1.1.4'
loop_
_geom_angle_atom_site_label_1
_geom_angle_atom_site_label_2
_geom_angle_atom_site_label_3
_geom_angle
_geom_angle_site_symmetry_1
_geom_angle_site_symmetry_3
_geom_angle_publ_flag
O1 Yb1 O1 111.87(9) 43_444 . ?
O1 Yb1 O1 158.86(9) 43_444 28_445 ?
O1 Yb1 O1 72.23(9) . 28_445 ?
O1 Yb1 O1 72.23(9) 43_444 18_545 ?
O1 Yb1 O1 158.86(9) . 18_545 ?
O1 Yb1 O1 111.87(9) 28_445 18_545 ?
O1 Yb1 O1 125.05(4) 43_444 16_545 ?
O1 Yb1 O1 95.03(5) . 16_545 ?
O1 Yb1 O1 73.65(7) 28_445 16_545 ?
O1 Yb1 O1 67.64(8) 18_545 16_545 ?
O1 Yb1 O1 95.03(5) 43_444 35_445 ?
O1 Yb1 O1 125.05(4) . 35_445 ?
O1 Yb1 O1 67.64(8) 28_445 35_445 ?
O1 Yb1 O1 73.65(7) 18_545 35_445 ?
O1 Yb1 O1 107.57(8) 16_545 35_445 ?
O1 Yb1 O1 73.65(7) 43_444 9 ?
O1 Yb1 O1 67.64(8) . 9 ?
O1 Yb1 O1 125.05(4) 28_445 9 ?
O1 Yb1 O1 95.03(5) 18_545 9 ?
O1 Yb1 O1 74.15(8) 16_545 9 ?
O1 Yb1 O1 166.21(8) 35_445 9 ?
O1 Yb1 O1 67.64(8) 43_444 38_444 ?
O1 Yb1 O1 73.65(7) . 38_444 ?
O1 Yb1 O1 95.03(5) 28_445 38_444 ?
O1 Yb1 O1 125.05(4) 18_545 38_444 ?
O1 Yb1 O1 166.21(8) 16_545 38_444 ?
O1 Yb1 O1 74.15(8) 35_445 38_444 ?
O1 Yb1 O1 107.57(8) 9 38_444 ?
O1 Yb1 Al2 143.88(4) 43_444 . ?
O1 Yb1 Al2 36.12(4) . . ?
O1 Yb1 Al2 36.12(4) 28_445 . ?
O1 Yb1 Al2 143.88(4) 18_545 . ?
O1 Yb1 Al2 83.11(4) 16_545 . ?
O1 Yb1 Al2 96.89(4) 35_445 . ?
O1 Yb1 Al2 96.89(4) 9 . ?
O1 Yb1 Al2 83.11(4) 38_444 . ?
O1 Yb1 Al2 36.12(4) 43_444 50_556 ?
O1 Yb1 Al2 143.88(4) . 50_556 ?
O1 Yb1 Al2 143.88(4) 28_445 50_556 ?
O1 Yb1 Al2 36.12(4) 18_545 50_556 ?
O1 Yb1 Al2 96.89(4) 16_545 50_556 ?
O1 Yb1 Al2 83.11(4) 35_445 50_556 ?
O1 Yb1 Al2 83.11(4) 9 50_556 ?
O1 Yb1 Al2 96.89(4) 38_444 50_556 ?
Al2 Yb1 Al2 180.0 . 50_556 ?
O1 Yb1 Al1 33.74(4) 43_444 . ?
O1 Yb1 Al1 97.07(5) . . ?
O1 Yb1 Al1 126.84(5) 28_445 . ?
O1 Yb1 Al1 96.26(4) 18_545 . ?
O1 Yb1 Al1 158.74(4) 16_545 . ?
O1 Yb1 Al1 79.36(4) 35_445 . ?
O1 Yb1 Al1 94.43(4) 9 . ?
O1 Yb1 Al1 34.45(4) 38_444 . ?
Al2 Yb1 Al1 116.6 . . ?
Al2 Yb1 Al1 63.4 50_556 . ?
O1 Yb1 Al1 97.07(5) 43_444 38_444 ?
O1 Yb1 Al1 33.74(4) . 38_444 ?
O1 Yb1 Al1 96.26(4) 28_445 38_444 ?
O1 Yb1 Al1 126.84(5) 18_545 38_444 ?
O1 Yb1 Al1 79.36(4) 16_545 38_444 ?
O1 Yb1 Al1 158.74(4) 35_445 38_444 ?
O1 Yb1 Al1 34.45(4) 9 38_444 ?
O1 Yb1 Al1 94.43(4) 38_444 38_444 ?
Al2 Yb1 Al1 63.4 . 38_444 ?
Al2 Yb1 Al1 116.6 50_556 38_444 ?
Al1 Yb1 Al1 101.5 . 38_444 ?
O1 Al1 O1 86.28(8) 96 91 ?
O1 Al1 O1 86.28(8) 96 86 ?
O1 Al1 O1 86.28(8) 91 86 ?
O1 Al1 O1 93.72(8) 96 38_444 ?
O1 Al1 O1 93.72(8) 91 38_444 ?
O1 Al1 O1 180.00(15) 86 38_444 ?
O1 Al1 O1 93.72(8) 96 43_444 ?
O1 Al1 O1 180.00(11) 91 43_444 ?
O1 Al1 O1 93.72(8) 86 43_444 ?
O1 Al1 O1 86.28(8) 38_444 43_444 ?
O1 Al1 O1 180.00(4) 96 48_444 ?
O1 Al1 O1 93.72(8) 91 48_444 ?
O1 Al1 O1 93.72(8) 86 48_444 ?
O1 Al1 O1 86.28(8) 38_444 48_444 ?
O1 Al1 O1 86.28(8) 43_444 48_444 ?
O1 Al1 Yb1 88.67(5) 96 . ?
O1 Al1 Yb1 138.52(5) 91 . ?
O1 Al1 Yb1 134.43(5) 86 . ?
O1 Al1 Yb1 45.57(5) 38_444 . ?
O1 Al1 Yb1 41.48(5) 43_444 . ?
O1 Al1 Yb1 91.33(5) 48_444 . ?
O1 Al1 Yb1 45.57(5) 96 53 ?
O1 Al1 Yb1 91.33(5) 91 53 ?
O1 Al1 Yb1 41.48(5) 86 53 ?
O1 Al1 Yb1 138.52(5) 38_444 53 ?
O1 Al1 Yb1 88.67(5) 43_444 53 ?
O1 Al1 Yb1 134.43(5) 48_444 53 ?
Yb1 Al1 Yb1 113.6 . 53 ?
O1 Al1 Yb1 138.52(5) 96 9 ?
O1 Al1 Yb1 134.43(5) 91 9 ?
O1 Al1 Yb1 88.67(5) 86 9 ?
O1 Al1 Yb1 91.33(5) 38_444 9 ?
O1 Al1 Yb1 45.57(5) 43_444 9 ?
O1 Al1 Yb1 41.48(5) 48_444 9 ?
Yb1 Al1 Yb1 66.4 . 9 ?
Yb1 Al1 Yb1 113.6 53 9 ?
O1 Al1 Yb1 41.48(5) 96 57 ?
O1 Al1 Yb1 45.57(5) 91 57 ?
O1 Al1 Yb1 91.33(5) 86 57 ?
O1 Al1 Yb1 88.67(5) 38_444 57 ?
O1 Al1 Yb1 134.43(5) 43_444 57 ?
O1 Al1 Yb1 138.52(5) 48_444 57 ?
Yb1 Al1 Yb1 113.6 . 57 ?
Yb1 Al1 Yb1 66.4 53 57 ?
Yb1 Al1 Yb1 180.0 9 57 ?
O1 Al1 Y1 91.33(5) 96 49 ?
O1 Al1 Y1 41.48(5) 91 49 ?
O1 Al1 Y1 45.57(5) 86 49 ?
O1 Al1 Y1 134.43(5) 38_444 49 ?
O1 Al1 Y1 138.52(5) 43_444 49 ?
O1 Al1 Y1 88.67(5) 48_444 49 ?
Yb1 Al1 Y1 180.0 . 49 ?
Yb1 Al1 Y1 66.4 53 49 ?
Yb1 Al1 Y1 113.6 9 49 ?
Yb1 Al1 Y1 66.4 57 49 ?
O1 Al1 Y1 134.43(5) 96 5 ?
O1 Al1 Y1 88.67(5) 91 5 ?
O1 Al1 Y1 138.52(5) 86 5 ?
O1 Al1 Y1 41.48(5) 38_444 5 ?
O1 Al1 Y1 91.33(5) 43_444 5 ?
O1 Al1 Y1 45.57(5) 48_444 5 ?
Yb1 Al1 Y1 66.4 . 5 ?
Yb1 Al1 Y1 180.0 53 5 ?
Yb1 Al1 Y1 66.4 9 5 ?
Yb1 Al1 Y1 113.6 57 5 ?
Y1 Al1 Y1 113.6 49 5 ?
O1 Al1 Y1 45.57(5) 96 53 ?
O1 Al1 Y1 91.33(5) 91 53 ?
O1 Al1 Y1 41.48(5) 86 53 ?
O1 Al1 Y1 138.52(5) 38_444 53 ?
O1 Al1 Y1 88.67(5) 43_444 53 ?
O1 Al1 Y1 134.43(5) 48_444 53 ?
Yb1 Al1 Y1 113.6 . 53 ?
Yb1 Al1 Y1 0.0 53 53 ?
Yb1 Al1 Y1 113.6 9 53 ?
Yb1 Al1 Y1 66.4 57 53 ?
Y1 Al1 Y1 66.4 49 53 ?
Y1 Al1 Y1 180.0 5 53 ?
O1 Al1 Y1 138.52(5) 96 9 ?
O1 Al1 Y1 134.43(5) 91 9 ?
O1 Al1 Y1 88.67(5) 86 9 ?
O1 Al1 Y1 91.33(5) 38_444 9 ?
O1 Al1 Y1 45.57(5) 43_444 9 ?
O1 Al1 Y1 41.48(5) 48_444 9 ?
Yb1 Al1 Y1 66.4 . 9 ?
Yb1 Al1 Y1 113.6 53 9 ?
Yb1 Al1 Y1 0.0 9 9 ?
Yb1 Al1 Y1 180.0 57 9 ?
Y1 Al1 Y1 113.6 49 9 ?
Y1 Al1 Y1 66.4 5 9 ?
Y1 Al1 Y1 113.6 53 9 ?
O1 Al1 Y1 41.48(5) 96 57 ?
O1 Al1 Y1 45.57(5) 91 57 ?
O1 Al1 Y1 91.33(5) 86 57 ?
O1 Al1 Y1 88.67(5) 38_444 57 ?
O1 Al1 Y1 134.43(5) 43_444 57 ?
O1 Al1 Y1 138.52(5) 48_444 57 ?
Yb1 Al1 Y1 113.6 . 57 ?
Yb1 Al1 Y1 66.4 53 57 ?
Yb1 Al1 Y1 180.0 9 57 ?
Yb1 Al1 Y1 0.0 57 57 ?
Y1 Al1 Y1 66.4 49 57 ?
Y1 Al1 Y1 113.6 5 57 ?
Y1 Al1 Y1 66.4 53 57 ?
Y1 Al1 Y1 180.0 9 57 ?
O1 Al1 Yb1 91.33(5) 96 49 ?
O1 Al1 Yb1 41.48(5) 91 49 ?
O1 Al1 Yb1 45.57(5) 86 49 ?
O1 Al1 Yb1 134.43(5) 38_444 49 ?
O1 Al1 Yb1 138.52(5) 43_444 49 ?
O1 Al1 Yb1 88.67(5) 48_444 49 ?
Yb1 Al1 Yb1 180.0 . 49 ?
Yb1 Al1 Yb1 66.4 53 49 ?
Yb1 Al1 Yb1 113.6 9 49 ?
Yb1 Al1 Yb1 66.4 57 49 ?
Y1 Al1 Yb1 0.0 49 49 ?
Y1 Al1 Yb1 113.6 5 49 ?
Y1 Al1 Yb1 66.4 53 49 ?
Y1 Al1 Yb1 113.6 9 49 ?
Y1 Al1 Yb1 66.4 57 49 ?
O1 Al1 Yb1 134.43(5) 96 5 ?
O1 Al1 Yb1 88.67(5) 91 5 ?
O1 Al1 Yb1 138.52(5) 86 5 ?
O1 Al1 Yb1 41.48(5) 38_444 5 ?
O1 Al1 Yb1 91.33(5) 43_444 5 ?
O1 Al1 Yb1 45.57(5) 48_444 5 ?
Yb1 Al1 Yb1 66.4 . 5 ?
Yb1 Al1 Yb1 180.0 53 5 ?
Yb1 Al1 Yb1 66.4 9 5 ?
Yb1 Al1 Yb1 113.6 57 5 ?
Y1 Al1 Yb1 113.6 49 5 ?
Y1 Al1 Yb1 0.0 5 5 ?
Y1 Al1 Yb1 180.0 53 5 ?
Y1 Al1 Yb1 66.4 9 5 ?
Y1 Al1 Yb1 113.6 57 5 ?
Yb1 Al1 Yb1 113.6 49 5 ?
O1 Al1 O1 114.04(7) 96 . ?
O1 Al1 O1 117.54(7) 91 . ?
O1 Al1 O1 148.41(5) 86 . ?
O1 Al1 O1 31.59(5) 38_444 . ?
O1 Al1 O1 62.46(7) 43_444 . ?
O1 Al1 O1 65.96(7) 48_444 . ?
Yb1 Al1 O1 32.09(2) . . ?
Yb1 Al1 O1 145.61(2) 53 . ?
Yb1 Al1 O1 59.96(2) 9 . ?
Yb1 Al1 O1 120.04(2) 57 . ?
Y1 Al1 O1 147.91(2) 49 . ?
Y1 Al1 O1 34.39(2) 5 . ?
Y1 Al1 O1 145.61(2) 53 . ?
Y1 Al1 O1 59.96(2) 9 . ?
Y1 Al1 O1 120.04(2) 57 . ?
Yb1 Al1 O1 147.91(2) 49 . ?
Yb1 Al1 O1 34.39(2) 5 . ?
O1 Al1 Al1 127.86(5) 96 49_666 ?
O1 Al1 Al1 127.86(5) 91 49_666 ?
O1 Al1 Al1 127.86(5) 86 49_666 ?
O1 Al1 Al1 52.14(5) 38_444 49_666 ?
O1 Al1 Al1 52.14(5) 43_444 49_666 ?
O1 Al1 Al1 52.14(5) 48_444 49_666 ?
Yb1 Al1 Al1 39.2 . 49_666 ?
Yb1 Al1 Al1 140.8 53 49_666 ?
Yb1 Al1 Al1 39.2 9 49_666 ?
Yb1 Al1 Al1 140.8 57 49_666 ?
Y1 Al1 Al1 140.8 49 49_666 ?
Y1 Al1 Al1 39.2 5 49_666 ?
Y1 Al1 Al1 140.8 53 49_666 ?
Y1 Al1 Al1 39.2 9 49_666 ?
Y1 Al1 Al1 140.8 57 49_666 ?
Yb1 Al1 Al1 140.8 49 49_666 ?
Yb1 Al1 Al1 39.2 5 49_666 ?
O1 Al1 Al1 20.76(2) . 49_666 ?
O1 Al2 O1 114.61(6) 89_655 28_445 ?
O1 Al2 O1 114.61(6) 89_655 . ?
O1 Al2 O1 99.62(12) 28_445 . ?
O1 Al2 O1 99.62(12) 89_655 68_656 ?
O1 Al2 O1 114.61(6) 28_445 68_656 ?
O1 Al2 O1 114.61(6) . 68_656 ?
O1 Al2 Yb1 130.19(6) 89_655 . ?
O1 Al2 Yb1 49.81(6) 28_445 . ?
O1 Al2 Yb1 49.81(6) . . ?
O1 Al2 Yb1 130.19(6) 68_656 . ?
O1 Al2 Y1 49.81(6) 89_655 50_656 ?
O1 Al2 Y1 130.19(6) 28_445 50_656 ?
O1 Al2 Y1 130.19(6) . 50_656 ?
O1 Al2 Y1 49.81(6) 68_656 50_656 ?
Yb1 Al2 Y1 180.0 . 50_656 ?
O1 Al2 Yb1 49.81(6) 89_655 50_656 ?
O1 Al2 Yb1 130.19(6) 28_445 50_656 ?
O1 Al2 Yb1 130.19(6) . 50_656 ?
O1 Al2 Yb1 49.81(6) 68_656 50_656 ?
Yb1 Al2 Yb1 180.0 . 50_656 ?
Y1 Al2 Yb1 0.0 50_656 50_656 ?
O1 Al2 O1 144.74(5) 89_655 54_655 ?
O1 Al2 O1 58.01(9) 28_445 54_655 ?
O1 Al2 O1 100.61(6) . 54_655 ?
O1 Al2 O1 61.91(8) 68_656 54_655 ?
Yb1 Al2 O1 74.46(3) . 54_655 ?
Y1 Al2 O1 105.54(3) 50_656 54_655 ?
Yb1 Al2 O1 105.54(3) 50_656 54_655 ?
O1 Al2 O1 61.91(8) 89_655 77 ?
O1 Al2 O1 100.61(6) 28_445 77 ?
O1 Al2 O1 58.01(9) . 77 ?
O1 Al2 O1 144.74(5) 68_656 77 ?
Yb1 Al2 O1 74.46(3) . 77 ?
Y1 Al2 O1 105.54(3) 50_656 77 ?
Yb1 Al2 O1 105.54(3) 50_656 77 ?
O1 Al2 O1 148.93(6) 54_655 77 ?
O1 Al2 O1 58.01(9) 89_655 45_445 ?
O1 Al2 O1 61.91(8) 28_445 45_445 ?
O1 Al2 O1 144.74(5) . 45_445 ?
O1 Al2 O1 100.61(6) 68_656 45_445 ?
Yb1 Al2 O1 105.54(3) . 45_445 ?
Y1 Al2 O1 74.46(3) 50_656 45_445 ?
Yb1 Al2 O1 74.46(3) 50_656 45_445 ?
O1 Al2 O1 94.114(17) 54_655 45_445 ?
O1 Al2 O1 94.114(17) 77 45_445 ?
O1 Al2 O1 100.61(6) 89_655 22_554 ?
O1 Al2 O1 144.74(5) 28_445 22_554 ?
O1 Al2 O1 61.91(8) . 22_554 ?
O1 Al2 O1 58.01(9) 68_656 22_554 ?
Yb1 Al2 O1 105.54(3) . 22_554 ?
Y1 Al2 O1 74.46(3) 50_656 22_554 ?
Yb1 Al2 O1 74.46(3) 50_656 22_554 ?
O1 Al2 O1 94.114(16) 54_655 22_554 ?
O1 Al2 O1 94.114(17) 77 22_554 ?
O1 Al2 O1 148.93(6) 45_445 22_554 ?
Al2 O1 Al1 130.04(10) . 38_444 ?
Al2 O1 Yb1 94.07(7) . . ?
Al1 O1 Yb1 104.78(8) 38_444 . ?
Al2 O1 Y1 121.01(9) . 5 ?
Al1 O1 Y1 99.98(7) 38_444 5 ?
Yb1 O1 Y1 101.91(7) . 5 ?
Al2 O1 Yb1 121.01(9) . 5 ?
Al1 O1 Yb1 99.98(7) 38_444 5 ?
Yb1 O1 Yb1 101.91(7) . 5 ?
Y1 O1 Yb1 0.0 5 5 ?
Al2 O1 O1 161.30(11) . 5 ?
Al1 O1 O1 46.86(4) 38_444 5 ?
Yb1 O1 O1 104.54(6) . 5 ?
Y1 O1 O1 53.75(6) 5 5 ?
Yb1 O1 O1 53.75(6) 5 5 ?
Al2 O1 O1 134.78(12) . 9 ?
Al1 O1 O1 46.86(4) 38_444 9 ?
Yb1 O1 O1 58.61(7) . 9 ?
Y1 O1 O1 100.82(5) 5 9 ?
Yb1 O1 O1 100.82(5) 5 9 ?
O1 O1 O1 60.0 5 9 ?
Al2 O1 O1 40.19(6) . 28_445 ?
Al1 O1 O1 133.32(12) 38_444 28_445 ?
Yb1 O1 O1 53.88(4) . 28_445 ?
Y1 O1 O1 123.42(11) 5 28_445 ?
Yb1 O1 O1 123.42(11) 5 28_445 ?
O1 O1 O1 158.36(5) 5 28_445 ?
O1 O1 O1 103.50(10) 9 28_445 ?
Al2 O1 O1 102.81(10) . 81 ?
Al1 O1 O1 43.14(4) 38_444 81 ?
Yb1 O1 O1 146.91(7) . 81 ?
Y1 O1 O1 93.53(5) 5 81 ?
Yb1 O1 O1 93.53(5) 5 81 ?
O1 O1 O1 62.06(4) 5 81 ?
O1 O1 O1 90.0 9 81 ?
O1 O1 O1 136.18(8) 28_445 81 ?
Al2 O1 O1 89.66(9) . 77 ?
Al1 O1 O1 43.14(4) 38_444 77 ?
Yb1 O1 O1 96.56(5) . 77 ?
Y1 O1 O1 142.33(6) 5 77 ?
Yb1 O1 O1 142.33(6) 5 77 ?
O1 O1 O1 90.0 5 77 ?
O1 O1 O1 62.06(4) 9 77 ?
O1 O1 O1 93.97(9) 28_445 77 ?
O1 O1 O1 55.88(8) 81 77 ?
Al2 O1 O1 101.31(6) . 38_444 ?
Al1 O1 O1 127.57(6) 38_444 38_444 ?
Yb1 O1 O1 55.35(6) . 38_444 ?
Y1 O1 O1 51.00(6) 5 38_444 ?
Yb1 O1 O1 51.00(6) 5 38_444 ?
O1 O1 O1 88.08(4) 5 38_444 ?
O1 O1 O1 91.57(3) 9 38_444 ?
O1 O1 O1 77.94(6) 28_445 38_444 ?
O1 O1 O1 144.09(8) 81 38_444 ?
O1 O1 O1 150.11(8) 77 38_444 ?
Al2 O1 O1 85.86(7) . 22_554 ?
Al1 O1 O1 99.38(9) 38_444 22_554 ?
Yb1 O1 O1 148.11(8) . 22_554 ?
Y1 O1 O1 52.92(4) 5 22_554 ?
Yb1 O1 O1 52.92(4) 5 22_554 ?
O1 O1 O1 77.41(9) 5 22_554 ?
O1 O1 O1 136.91(10) 9 22_554 ?
O1 O1 O1 119.39(10) 28_445 22_554 ?
O1 O1 O1 62.55(8) 81 22_554 ?
O1 O1 O1 115.32(7) 77 22_554 ?
O1 O1 O1 93.33(7) 38_444 22_554 ?
Al2 O1 O1 32.70(3) . 89_655 ?
Al1 O1 O1 97.68(9) 38_444 89_655 ?
Yb1 O1 O1 110.60(7) . 89_655 ?
Y1 O1 O1 137.32(9) 5 89_655 ?
Yb1 O1 O1 137.32(9) 5 89_655 ?
O1 O1 O1 135.87(5) 5 89_655 ?
O1 O1 O1 119.37(10) 9 89_655 ?
O1 O1 O1 63.01(4) 28_445 89_655 ?
O1 O1 O1 73.96(9) 81 89_655 ?
O1 O1 O1 60.70(9) 77 89_655 ?
O1 O1 O1 133.99(4) 38_444 89_655 ?
O1 O1 O1 86.05(5) 22_554 89_655 ?
Al2 O1 O1 32.70(3) . 68_656 ?
Al1 O1 O1 140.58(11) 38_444 68_656 ?
Yb1 O1 O1 110.60(7) . 68_656 ?
Y1 O1 O1 89.39(7) 5 68_656 ?
Yb1 O1 O1 89.39(7) 5 68_656 ?
O1 O1 O1 133.59(11) 5 68_656 ?
O1 O1 O1 166.32(11) 9 68_656 ?
O1 O1 O1 63.01(4) 28_445 68_656 ?
O1 O1 O1 98.52(9) 81 68_656 ?
O1 O1 O1 114.36(8) 77 68_656 ?
O1 O1 O1 87.79(5) 38_444 68_656 ?
O1 O1 O1 56.75(9) 22_554 68_656 ?
O1 O1 O1 53.99(7) 89_655 68_656 ?
Al2 O1 Al2 86.91(6) . 81 ?
Al1 O1 Al2 74.32(5) 38_444 81 ?
Yb1 O1 Al2 178.97(7) . 81 ?
Y1 O1 Al2 77.81(5) 5 81 ?
Yb1 O1 Al2 77.81(5) 5 81 ?
O1 O1 Al2 74.48(7) 5 81 ?
O1 O1 Al2 120.43(5) 9 81 ?
O1 O1 Al2 127.10(3) 28_445 81 ?
O1 O1 Al2 32.33(4) 81 81 ?
O1 O1 Al2 83.13(7) 77 81 ?
O1 O1 Al2 124.76(9) 38_444 81 ?
O1 O1 Al2 32.23(4) 22_554 81 ?
O1 O1 Al2 70.11(7) 89_655 81 ?
O1 O1 Al2 70.41(7) 68_656 81 ?
loop_
_geom_bond_atom_site_label_1
_geom_bond_atom_site_label_2
_geom_bond_distance
_geom_bond_site_symmetry_2
_geom_bond_publ_flag
Yb1 O1 2.2886(18) 43_444 ?
Yb1 O1 2.2886(18) . ?
Yb1 O1 2.2886(18) 28_445 ?
Yb1 O1 2.2886(18) 18_545 ?
Yb1 O1 2.4224(18) 16_545 ?
Yb1 O1 2.4224(18) 35_445 ?
Yb1 O1 2.4224(18) 9 ?
Yb1 O1 2.4224(18) 38_444 ?
Yb1 Al2 2.9883(4) . ?
Yb1 Al2 2.9883(4) 50_556 ?
Yb1 Al1 3.3410(4) . ?
Yb1 Al1 3.3410(4) 38_444 ?
Al1 O1 1.9192(18) 96 ?
Al1 O1 1.9192(18) 91 ?
Al1 O1 1.9192(18) 86 ?
Al1 O1 1.9192(18) 38_444 ?
Al1 O1 1.9192(18) 43_444 ?
Al1 O1 1.9192(18) 48_444 ?
Al1 Yb1 3.3410(4) 53 ?
Al1 Yb1 3.3410(4) 9 ?
Al1 Yb1 3.3410(4) 57 ?
Al1 Y1 3.3410(4) 49 ?
Al1 Y1 3.3410(4) 5 ?
Al1 Y1 3.3410(4) 53 ?
Al1 Y1 3.3410(4) 9 ?
Al1 Y1 3.3410(4) 57 ?
Al1 Yb1 3.3410(4) 49 ?
Al1 Yb1 3.3410(4) 5 ?
Al1 O1 4.2756(19) . ?
Al1 Al1 20.703(2) 49_666 ?
Al2 O1 1.7659(17) 89_655 ?
Al2 O1 1.7659(17) 28_445 ?
Al2 O1 1.7659(17) . ?
Al2 O1 1.7659(17) 68_656 ?
Al2 Y1 2.9883(4) 50_656 ?
Al2 Yb1 2.9883(4) 50_656 ?
Al2 O1 3.3022(18) 54_655 ?
Al2 O1 3.3022(18) 77 ?
Al2 O1 3.3022(18) 45_445 ?
Al2 O1 3.3022(18) 22_554 ?
O1 Al1 1.9192(18) 38_444 ?
O1 Y1 2.4224(18) 5 ?
O1 Yb1 2.4224(18) 5 ?
O1 O1 2.625(3) 5 ?
O1 O1 2.625(3) 9 ?
O1 O1 2.698(3) 28_445 ?
O1 O1 2.801(3) 81 ?
O1 O1 2.801(3) 77 ?
O1 O1 2.826(4) 38_444 ?
O1 O1 2.921(4) 22_554 ?
O1 O1 2.972(3) 89_655 ?
O1 O1 2.972(3) 68_656 ?
O1 Al2 3.3022(18) 81 ?
loop_
_geom_torsion_atom_site_label_1
_geom_torsion_atom_site_label_2
_geom_torsion_atom_site_label_3
_geom_torsion_atom_site_label_4
_geom_torsion
_geom_torsion_site_symmetry_1
_geom_torsion_site_symmetry_2
_geom_torsion_site_symmetry_3
_geom_torsion_site_symmetry_4
_geom_torsion_publ_flag
Al1 Al1 Al1 O1 3.26(7) ? . 49_666 43_444 ?
