#------------------------------------------------------------------------------
#$Date: 2016-03-23 01:54:03 +0200 (Wed, 23 Mar 2016) $
#$Revision: 179160 $
#$URL: svn://www.crystallography.net/cod/cif/4/31/21/4312144.cif $
#------------------------------------------------------------------------------
#
# This file is available in the Crystallography Open Database (COD),
# http://www.crystallography.net/
#
# All data on this site have been placed in the public domain by the
# contributors.
#
data_4312144
loop_
_publ_author_name
'\/Lukasz Dobrzycki'
'Ewa Bulska'
'Dorota Anna Pawlak'
'Zygmunt Frukacz'
'Krzysztof Wo\'zniak'
_publ_section_title
;
 Structure of YAG Crystals Doped/Substituted with Erbium and Ytterbium
;
_journal_name_full               'Inorganic Chemistry'
_journal_page_first              7656
_journal_page_last               7664
_journal_paper_doi               10.1021/ic049920z
_journal_volume                  43
_journal_year                    2004
_chemical_formula_sum            'Al5 O12 Yb3'
_chemical_formula_weight         846.02
_chemical_name_systematic
; 
 ? 
;
_space_group_IT_number           230
_symmetry_cell_setting           cubic
_symmetry_space_group_name_Hall  '-I 4bd 2c 3'
_symmetry_space_group_name_H-M   'I a -3 d'
_atom_sites_solution_hydrogens   geom
_atom_sites_solution_primary     direct
_atom_sites_solution_secondary   difmap
_audit_creation_method           SHELXL-97
_cell_angle_alpha                90.00
_cell_angle_beta                 90.00
_cell_angle_gamma                90.00
_cell_formula_units_Z            8
_cell_length_a                   11.9182(14)
_cell_length_b                   11.9182(14)
_cell_length_c                   11.9182(14)
_cell_measurement_temperature    293(2)
_cell_volume                     1692.9(3)
_computing_structure_refinement  'SHELXL-97 (Sheldrick, 1997)'
_computing_structure_solution    'SHELXS-97 (Sheldrick, 1990)'
_diffrn_ambient_temperature      293(2)
_diffrn_measured_fraction_theta_full 0.998
_diffrn_measured_fraction_theta_max 0.998
_diffrn_radiation_monochromator  graphite
_diffrn_radiation_source         'fine-focus sealed tube'
_diffrn_radiation_type           MoK\a
_diffrn_radiation_wavelength     0.71073
_diffrn_reflns_av_R_equivalents  0.0000
_diffrn_reflns_av_sigmaI/netI    0.0537
_diffrn_reflns_limit_h_max       12
_diffrn_reflns_limit_h_min       0
_diffrn_reflns_limit_k_max       15
_diffrn_reflns_limit_k_min       0
_diffrn_reflns_limit_l_max       21
_diffrn_reflns_limit_l_min       2
_diffrn_reflns_number            448
_diffrn_reflns_theta_full        40.17
_diffrn_reflns_theta_max         40.17
_diffrn_reflns_theta_min         4.19
_exptl_absorpt_coefficient_mu    33.474
_exptl_crystal_density_diffrn    6.639
_exptl_crystal_density_method    'not measured'
_exptl_crystal_F_000             2968
_refine_diff_density_max         1.343
_refine_diff_density_min         -0.972
_refine_diff_density_rms         0.202
_refine_ls_extinction_coef       0.000408(9)
_refine_ls_extinction_expression Fc^*^=kFc[1+0.001xFc^2^\l^3^/sin(2\q)]^-1/4^
_refine_ls_extinction_method     SHELXL
_refine_ls_goodness_of_fit_ref   0.397
_refine_ls_hydrogen_treatment    mixed
_refine_ls_matrix_type           full
_refine_ls_number_parameters     18
_refine_ls_number_reflns         448
_refine_ls_number_restraints     0
_refine_ls_restrained_S_all      0.397
_refine_ls_R_factor_all          0.0285
_refine_ls_R_factor_gt           0.0096
_refine_ls_shift/su_max          0.264
_refine_ls_shift/su_mean         0.015
_refine_ls_structure_factor_coef Fsqd
_refine_ls_weighting_details
'calc w=1/[\s^2^(Fo^2^)+(0.0000P)^2^+0.0000P] where P=(Fo^2^+2Fc^2^)/3'
_refine_ls_weighting_scheme      calc
_refine_ls_wR_factor_gt          0.0189
_refine_ls_wR_factor_ref         0.0231
_reflns_number_gt                299
_reflns_number_total             448
_reflns_threshold_expression     >2sigma(I)
_cod_data_source_file            ic049920zsi20040119_085908_14.cif
_cod_data_source_block           yb100
_cod_database_code               4312144
loop_
_symmetry_equiv_pos_as_xyz
'x, y, z'
'-x+1/2, -y, z+1/2'
'-x, y+1/2, -z+1/2'
'x+1/2, -y+1/2, -z'
'z, x, y'
'z+1/2, -x+1/2, -y'
'-z+1/2, -x, y+1/2'
'-z, x+1/2, -y+1/2'
'y, z, x'
'-y, z+1/2, -x+1/2'
'y+1/2, -z+1/2, -x'
'-y+1/2, -z, x+1/2'
'y+3/4, x+1/4, -z+1/4'
'-y+3/4, -x+3/4, -z+3/4'
'y+1/4, -x+1/4, z+3/4'
'-y+1/4, x+3/4, z+1/4'
'x+3/4, z+1/4, -y+1/4'
'-x+1/4, z+3/4, y+1/4'
'-x+3/4, -z+3/4, -y+3/4'
'x+1/4, -z+1/4, y+3/4'
'z+3/4, y+1/4, -x+1/4'
'z+1/4, -y+1/4, x+3/4'
'-z+1/4, y+3/4, x+1/4'
'-z+3/4, -y+3/4, -x+3/4'
'x+1/2, y+1/2, z+1/2'
'-x+1, -y+1/2, z+1'
'-x+1/2, y+1, -z+1'
'x+1, -y+1, -z+1/2'
'z+1/2, x+1/2, y+1/2'
'z+1, -x+1, -y+1/2'
'-z+1, -x+1/2, y+1'
'-z+1/2, x+1, -y+1'
'y+1/2, z+1/2, x+1/2'
'-y+1/2, z+1, -x+1'
'y+1, -z+1, -x+1/2'
'-y+1, -z+1/2, x+1'
'y+5/4, x+3/4, -z+3/4'
'-y+5/4, -x+5/4, -z+5/4'
'y+3/4, -x+3/4, z+5/4'
'-y+3/4, x+5/4, z+3/4'
'x+5/4, z+3/4, -y+3/4'
'-x+3/4, z+5/4, y+3/4'
'-x+5/4, -z+5/4, -y+5/4'
'x+3/4, -z+3/4, y+5/4'
'z+5/4, y+3/4, -x+3/4'
'z+3/4, -y+3/4, x+5/4'
'-z+3/4, y+5/4, x+3/4'
'-z+5/4, -y+5/4, -x+5/4'
'-x, -y, -z'
'x-1/2, y, -z-1/2'
'x, -y-1/2, z-1/2'
'-x-1/2, y-1/2, z'
'-z, -x, -y'
'-z-1/2, x-1/2, y'
'z-1/2, x, -y-1/2'
'z, -x-1/2, y-1/2'
'-y, -z, -x'
'y, -z-1/2, x-1/2'
'-y-1/2, z-1/2, x'
'y-1/2, z, -x-1/2'
'-y-3/4, -x-1/4, z-1/4'
'y-3/4, x-3/4, z-3/4'
'-y-1/4, x-1/4, -z-3/4'
'y-1/4, -x-3/4, -z-1/4'
'-x-3/4, -z-1/4, y-1/4'
'x-1/4, -z-3/4, -y-1/4'
'x-3/4, z-3/4, y-3/4'
'-x-1/4, z-1/4, -y-3/4'
'-z-3/4, -y-1/4, x-1/4'
'-z-1/4, y-1/4, -x-3/4'
'z-1/4, -y-3/4, -x-1/4'
'z-3/4, y-3/4, x-3/4'
'-x+1/2, -y+1/2, -z+1/2'
'x, y+1/2, -z'
'x+1/2, -y, z'
'-x, y, z+1/2'
'-z+1/2, -x+1/2, -y+1/2'
'-z, x, y+1/2'
'z, x+1/2, -y'
'z+1/2, -x, y'
'-y+1/2, -z+1/2, -x+1/2'
'y+1/2, -z, x'
'-y, z, x+1/2'
'y, z+1/2, -x'
'-y-1/4, -x+1/4, z+1/4'
'y-1/4, x-1/4, z-1/4'
'-y+1/4, x+1/4, -z-1/4'
'y+1/4, -x-1/4, -z+1/4'
'-x-1/4, -z+1/4, y+1/4'
'x+1/4, -z-1/4, -y+1/4'
'x-1/4, z-1/4, y-1/4'
'-x+1/4, z+1/4, -y-1/4'
'-z-1/4, -y+1/4, x+1/4'
'-z+1/4, y+1/4, -x-1/4'
'z+1/4, -y-1/4, -x+1/4'
'z-1/4, y-1/4, x-1/4'
loop_
_atom_site_label
_atom_site_type_symbol
_atom_site_fract_x
_atom_site_fract_y
_atom_site_fract_z
_atom_site_U_iso_or_equiv
_atom_site_adp_type
_atom_site_occupancy
_atom_site_symmetry_multiplicity
_atom_site_calc_flag
_atom_site_refinement_flags
_atom_site_disorder_assembly
_atom_site_disorder_group
Yb1 Yb 0.1250 0.0000 0.2500 0.00253(4) Uani 1 4 d S . .
Al1 Al 0.0000 0.0000 0.0000 0.0006(2) Uani 1 6 d S . .
Al2 Al 0.3750 0.0000 0.2500 0.00079(18) Uani 1 4 d S . .
O1 O 0.27965(15) 0.10055(15) 0.19858(15) 0.0031(3) Uani 1 1 d . . .
loop_
_atom_site_aniso_label
_atom_site_aniso_U_11
_atom_site_aniso_U_22
_atom_site_aniso_U_33
_atom_site_aniso_U_23
_atom_site_aniso_U_13
_atom_site_aniso_U_12
Yb1 0.00203(7) 0.00278(5) 0.00278(5) 0.00041(7) 0.000 0.000
Al1 0.0006(2) 0.0006(2) 0.0006(2) -0.0004(4) -0.0004(4) -0.0004(4)
Al2 0.0000(5) 0.0012(3) 0.0012(3) 0.000 0.000 0.000
O1 0.0012(6) 0.0038(6) 0.0041(6) 0.0004(5) 0.0003(5) -0.0002(5)
loop_
_atom_type_symbol
_atom_type_description
_atom_type_scat_dispersion_real
_atom_type_scat_dispersion_imag
_atom_type_scat_source
O O 0.0106 0.0060 'International Tables Vol C Tables 4.2.6.8 and 6.1.1.4'
Al Al 0.0645 0.0514 'International Tables Vol C Tables 4.2.6.8 and 6.1.1.4'
Yb Yb -0.3850 5.5486 'International Tables Vol C Tables 4.2.6.8 and 6.1.1.4'
loop_
_geom_angle_atom_site_label_1
_geom_angle_atom_site_label_2
_geom_angle_atom_site_label_3
_geom_angle
_geom_angle_site_symmetry_1
_geom_angle_site_symmetry_3
_geom_angle_publ_flag
O1 Yb1 O1 111.73(9) 43_444 . ?
O1 Yb1 O1 159.09(9) 43_444 28_445 ?
O1 Yb1 O1 72.28(9) . 28_445 ?
O1 Yb1 O1 72.28(9) 43_444 18_545 ?
O1 Yb1 O1 159.09(9) . 18_545 ?
O1 Yb1 O1 111.73(9) 28_445 18_545 ?
O1 Yb1 O1 67.76(9) 43_444 38_444 ?
O1 Yb1 O1 73.49(7) . 38_444 ?
O1 Yb1 O1 95.11(5) 28_445 38_444 ?
O1 Yb1 O1 125.01(4) 18_545 38_444 ?
O1 Yb1 O1 73.49(7) 43_444 9 ?
O1 Yb1 O1 67.76(9) . 9 ?
O1 Yb1 O1 125.01(4) 28_445 9 ?
O1 Yb1 O1 95.11(5) 18_545 9 ?
O1 Yb1 O1 107.60(8) 38_444 9 ?
O1 Yb1 O1 125.01(4) 43_444 16_545 ?
O1 Yb1 O1 95.11(5) . 16_545 ?
O1 Yb1 O1 73.49(7) 28_445 16_545 ?
O1 Yb1 O1 67.76(9) 18_545 16_545 ?
O1 Yb1 O1 166.11(9) 38_444 16_545 ?
O1 Yb1 O1 74.15(8) 9 16_545 ?
O1 Yb1 O1 95.11(5) 43_444 35_445 ?
O1 Yb1 O1 125.01(4) . 35_445 ?
O1 Yb1 O1 67.76(9) 28_445 35_445 ?
O1 Yb1 O1 73.49(7) 18_545 35_445 ?
O1 Yb1 O1 74.15(8) 38_444 35_445 ?
O1 Yb1 O1 166.11(9) 9 35_445 ?
O1 Yb1 O1 107.60(8) 16_545 35_445 ?
O1 Yb1 Al2 143.86(4) 43_444 . ?
O1 Yb1 Al2 36.14(4) . . ?
O1 Yb1 Al2 36.14(4) 28_445 . ?
O1 Yb1 Al2 143.86(4) 18_545 . ?
O1 Yb1 Al2 83.06(4) 38_444 . ?
O1 Yb1 Al2 96.94(4) 9 . ?
O1 Yb1 Al2 83.06(4) 16_545 . ?
O1 Yb1 Al2 96.94(4) 35_445 . ?
O1 Yb1 Al2 36.14(4) 43_444 50_556 ?
O1 Yb1 Al2 143.86(4) . 50_556 ?
O1 Yb1 Al2 143.86(4) 28_445 50_556 ?
O1 Yb1 Al2 36.14(4) 18_545 50_556 ?
O1 Yb1 Al2 96.94(4) 38_444 50_556 ?
O1 Yb1 Al2 83.06(4) 9 50_556 ?
O1 Yb1 Al2 96.94(4) 16_545 50_556 ?
O1 Yb1 Al2 83.06(4) 35_445 50_556 ?
Al2 Yb1 Al2 180.0 . 50_556 ?
O1 Yb1 Al1 33.82(5) 43_444 . ?
O1 Yb1 Al1 96.95(5) . . ?
O1 Yb1 Al1 126.96(5) 28_445 . ?
O1 Yb1 Al1 96.23(4) 18_545 . ?
O1 Yb1 Al1 34.51(4) 38_444 . ?
O1 Yb1 Al1 94.42(4) 9 . ?
O1 Yb1 Al1 158.78(4) 16_545 . ?
O1 Yb1 Al1 79.33(4) 35_445 . ?
Al2 Yb1 Al1 116.6 . . ?
Al2 Yb1 Al1 63.4 50_556 . ?
O1 Yb1 Al1 96.95(5) 43_444 38_444 ?
O1 Yb1 Al1 33.82(5) . 38_444 ?
O1 Yb1 Al1 96.23(4) 28_445 38_444 ?
O1 Yb1 Al1 126.96(5) 18_545 38_444 ?
O1 Yb1 Al1 94.42(4) 38_444 38_444 ?
O1 Yb1 Al1 34.51(4) 9 38_444 ?
O1 Yb1 Al1 79.33(4) 16_545 38_444 ?
O1 Yb1 Al1 158.78(4) 35_445 38_444 ?
Al2 Yb1 Al1 63.4 . 38_444 ?
Al2 Yb1 Al1 116.6 50_556 38_444 ?
Al1 Yb1 Al1 101.5 . 38_444 ?
O1 Al1 O1 86.17(8) 43_444 38_444 ?
O1 Al1 O1 93.83(8) 43_444 96 ?
O1 Al1 O1 93.83(8) 38_444 96 ?
O1 Al1 O1 86.17(8) 43_444 48_444 ?
O1 Al1 O1 86.17(8) 38_444 48_444 ?
O1 Al1 O1 180.00(15) 96 48_444 ?
O1 Al1 O1 180.00(4) 43_444 91 ?
O1 Al1 O1 93.83(8) 38_444 91 ?
O1 Al1 O1 86.17(8) 96 91 ?
O1 Al1 O1 93.83(8) 48_444 91 ?
O1 Al1 O1 93.83(8) 43_444 86 ?
O1 Al1 O1 180.00(11) 38_444 86 ?
O1 Al1 O1 86.17(8) 96 86 ?
O1 Al1 O1 93.83(8) 48_444 86 ?
O1 Al1 O1 86.17(8) 91 86 ?
O1 Al1 Yb1 41.51(5) 43_444 . ?
O1 Al1 Yb1 45.44(5) 38_444 . ?
O1 Al1 Yb1 88.74(5) 96 . ?
O1 Al1 Yb1 91.26(5) 48_444 . ?
O1 Al1 Yb1 138.49(5) 91 . ?
O1 Al1 Yb1 134.56(5) 86 . ?
O1 Al1 Yb1 45.44(5) 43_444 9 ?
O1 Al1 Yb1 91.26(5) 38_444 9 ?
O1 Al1 Yb1 138.49(5) 96 9 ?
O1 Al1 Yb1 41.51(5) 48_444 9 ?
O1 Al1 Yb1 134.56(5) 91 9 ?
O1 Al1 Yb1 88.74(5) 86 9 ?
Yb1 Al1 Yb1 66.4 . 9 ?
O1 Al1 Yb1 134.56(5) 43_444 57 ?
O1 Al1 Yb1 88.74(5) 38_444 57 ?
O1 Al1 Yb1 41.51(5) 96 57 ?
O1 Al1 Yb1 138.49(5) 48_444 57 ?
O1 Al1 Yb1 45.44(5) 91 57 ?
O1 Al1 Yb1 91.26(5) 86 57 ?
Yb1 Al1 Yb1 113.6 . 57 ?
Yb1 Al1 Yb1 180.0 9 57 ?
O1 Al1 Yb1 88.74(5) 43_444 53 ?
O1 Al1 Yb1 138.49(5) 38_444 53 ?
O1 Al1 Yb1 45.44(5) 96 53 ?
O1 Al1 Yb1 134.56(5) 48_444 53 ?
O1 Al1 Yb1 91.26(5) 91 53 ?
O1 Al1 Yb1 41.51(5) 86 53 ?
Yb1 Al1 Yb1 113.6 . 53 ?
Yb1 Al1 Yb1 113.6 9 53 ?
Yb1 Al1 Yb1 66.4 57 53 ?
O1 Al1 Yb1 91.26(5) 43_444 5 ?
O1 Al1 Yb1 41.51(5) 38_444 5 ?
O1 Al1 Yb1 134.56(5) 96 5 ?
O1 Al1 Yb1 45.44(5) 48_444 5 ?
O1 Al1 Yb1 88.74(5) 91 5 ?
O1 Al1 Yb1 138.49(5) 86 5 ?
Yb1 Al1 Yb1 66.4 . 5 ?
Yb1 Al1 Yb1 66.4 9 5 ?
Yb1 Al1 Yb1 113.6 57 5 ?
Yb1 Al1 Yb1 180.0 53 5 ?
O1 Al1 Yb1 138.49(5) 43_444 49 ?
O1 Al1 Yb1 134.56(5) 38_444 49 ?
O1 Al1 Yb1 91.26(5) 96 49 ?
O1 Al1 Yb1 88.74(5) 48_444 49 ?
O1 Al1 Yb1 41.51(5) 91 49 ?
O1 Al1 Yb1 45.44(5) 86 49 ?
Yb1 Al1 Yb1 180.0 . 49 ?
Yb1 Al1 Yb1 113.6 9 49 ?
Yb1 Al1 Yb1 66.4 57 49 ?
Yb1 Al1 Yb1 66.4 53 49 ?
Yb1 Al1 Yb1 113.6 5 49 ?
O1 Al1 O1 62.48(7) 43_444 . ?
O1 Al1 O1 31.47(5) 38_444 . ?
O1 Al1 O1 114.15(7) 96 . ?
O1 Al1 O1 65.85(7) 48_444 . ?
O1 Al1 O1 117.52(7) 91 . ?
O1 Al1 O1 148.53(5) 86 . ?
Yb1 Al1 O1 32.13(2) . . ?
Yb1 Al1 O1 59.99(2) 9 . ?
Yb1 Al1 O1 120.01(2) 57 . ?
Yb1 Al1 O1 145.65(2) 53 . ?
Yb1 Al1 O1 34.35(2) 5 . ?
Yb1 Al1 O1 147.87(2) 49 . ?
O1 Al1 Al1 52.07(5) 43_444 49_666 ?
O1 Al1 Al1 52.07(5) 38_444 49_666 ?
O1 Al1 Al1 127.93(5) 96 49_666 ?
O1 Al1 Al1 52.07(5) 48_444 49_666 ?
O1 Al1 Al1 127.93(5) 91 49_666 ?
O1 Al1 Al1 127.93(5) 86 49_666 ?
Yb1 Al1 Al1 39.2 . 49_666 ?
Yb1 Al1 Al1 39.2 9 49_666 ?
Yb1 Al1 Al1 140.8 57 49_666 ?
Yb1 Al1 Al1 140.8 53 49_666 ?
Yb1 Al1 Al1 39.2 5 49_666 ?
Yb1 Al1 Al1 140.8 49 49_666 ?
O1 Al1 Al1 20.78(2) . 49_666 ?
O1 Al2 O1 99.65(12) 89_655 68_656 ?
O1 Al2 O1 114.59(6) 89_655 28_445 ?
O1 Al2 O1 114.59(6) 68_656 28_445 ?
O1 Al2 O1 114.59(6) 89_655 . ?
O1 Al2 O1 114.59(6) 68_656 . ?
O1 Al2 O1 99.65(12) 28_445 . ?
O1 Al2 Yb1 130.18(6) 89_655 . ?
O1 Al2 Yb1 130.18(6) 68_656 . ?
O1 Al2 Yb1 49.82(6) 28_445 . ?
O1 Al2 Yb1 49.82(6) . . ?
O1 Al2 Yb1 49.82(6) 89_655 50_656 ?
O1 Al2 Yb1 49.82(6) 68_656 50_656 ?
O1 Al2 Yb1 130.18(6) 28_445 50_656 ?
O1 Al2 Yb1 130.18(6) . 50_656 ?
Yb1 Al2 Yb1 180.0 . 50_656 ?
O1 Al2 O1 144.83(5) 89_655 54_655 ?
O1 Al2 O1 61.73(8) 68_656 54_655 ?
O1 Al2 O1 58.24(9) 28_445 54_655 ?
O1 Al2 O1 100.52(6) . 54_655 ?
Yb1 Al2 O1 74.55(3) . 54_655 ?
Yb1 Al2 O1 105.45(3) 50_656 54_655 ?
O1 Al2 O1 61.73(8) 89_655 77 ?
O1 Al2 O1 144.83(5) 68_656 77 ?
O1 Al2 O1 100.52(6) 28_445 77 ?
O1 Al2 O1 58.24(9) . 77 ?
Yb1 Al2 O1 74.55(3) . 77 ?
Yb1 Al2 O1 105.45(3) 50_656 77 ?
O1 Al2 O1 149.10(6) 54_655 77 ?
O1 Al2 O1 58.24(9) 89_655 45_445 ?
O1 Al2 O1 100.52(6) 68_656 45_445 ?
O1 Al2 O1 61.73(8) 28_445 45_445 ?
O1 Al2 O1 144.83(5) . 45_445 ?
Yb1 Al2 O1 105.45(3) . 45_445 ?
Yb1 Al2 O1 74.55(3) 50_656 45_445 ?
O1 Al2 O1 94.069(17) 54_655 45_445 ?
O1 Al2 O1 94.069(17) 77 45_445 ?
O1 Al2 O1 100.52(6) 89_655 22_554 ?
O1 Al2 O1 58.24(9) 68_656 22_554 ?
O1 Al2 O1 144.83(5) 28_445 22_554 ?
O1 Al2 O1 61.73(8) . 22_554 ?
Yb1 Al2 O1 105.45(3) . 22_554 ?
Yb1 Al2 O1 74.55(3) 50_656 22_554 ?
O1 Al2 O1 94.069(16) 54_655 22_554 ?
O1 Al2 O1 94.069(17) 77 22_554 ?
O1 Al2 O1 149.10(6) 45_445 22_554 ?
O1 Al2 Yb1 34.40(6) 89_655 81 ?
O1 Al2 Yb1 107.36(6) 68_656 81 ?
O1 Al2 Yb1 132.60(6) 28_445 81 ?
O1 Al2 Yb1 81.37(6) . 81 ?
Yb1 Al2 Yb1 114.1 . 81 ?
Yb1 Al2 Yb1 65.9 50_656 81 ?
O1 Al2 Yb1 168.80(3) 54_655 81 ?
O1 Al2 Yb1 40.23(3) 77 81 ?
O1 Al2 Yb1 90.42(3) 45_445 81 ?
O1 Al2 Yb1 77.01(3) 22_554 81 ?
O1 Al2 Yb1 132.60(6) 89_655 5 ?
O1 Al2 Yb1 81.37(6) 68_656 5 ?
O1 Al2 Yb1 107.36(6) 28_445 5 ?
O1 Al2 Yb1 34.40(6) . 5 ?
Yb1 Al2 Yb1 65.9 . 5 ?
Yb1 Al2 Yb1 114.1 50_656 5 ?
O1 Al2 Yb1 77.01(3) 54_655 5 ?
O1 Al2 Yb1 90.42(3) 77 5 ?
O1 Al2 Yb1 168.80(3) 45_445 5 ?
O1 Al2 Yb1 40.23(3) 22_554 5 ?
Yb1 Al2 Yb1 99.6 81 5 ?
Al2 O1 Al1 129.79(10) . 38_444 ?
Al2 O1 Yb1 94.04(8) . . ?
Al1 O1 Yb1 104.67(8) 38_444 . ?
Al2 O1 Yb1 121.22(9) . 5 ?
Al1 O1 Yb1 100.05(7) 38_444 5 ?
Yb1 O1 Yb1 102.05(7) . 5 ?
Al2 O1 O1 134.52(12) . 9 ?
Al1 O1 O1 46.92(4) 38_444 9 ?
Yb1 O1 O1 58.46(7) . 9 ?
Yb1 O1 O1 100.89(6) 5 9 ?
Al2 O1 O1 161.43(11) . 5 ?
Al1 O1 O1 46.92(4) 38_444 5 ?
Yb1 O1 O1 104.47(6) . 5 ?
Yb1 O1 O1 53.79(6) 5 5 ?
O1 O1 O1 60.0 9 5 ?
Al2 O1 O1 40.18(6) . 28_445 ?
Al1 O1 O1 132.99(12) 38_444 28_445 ?
Yb1 O1 O1 53.86(4) . 28_445 ?
Yb1 O1 O1 123.68(11) 5 28_445 ?
O1 O1 O1 103.26(10) 9 28_445 ?
O1 O1 O1 158.29(5) 5 28_445 ?
Al2 O1 O1 102.74(10) . 81 ?
Al1 O1 O1 43.08(4) 38_444 81 ?
Yb1 O1 O1 146.72(7) . 81 ?
Yb1 O1 O1 93.58(5) 5 81 ?
O1 O1 O1 90.0 9 81 ?
O1 O1 O1 62.12(4) 5 81 ?
O1 O1 O1 135.99(8) 28_445 81 ?
Al2 O1 O1 89.41(9) . 77 ?
Al1 O1 O1 43.08(4) 38_444 77 ?
Yb1 O1 O1 96.49(5) . 77 ?
Yb1 O1 O1 142.33(6) 5 77 ?
O1 O1 O1 62.12(4) 9 77 ?
O1 O1 O1 90.0 5 77 ?
O1 O1 O1 93.71(10) 28_445 77 ?
O1 O1 O1 55.76(8) 81 77 ?
Al2 O1 O1 101.41(6) . 38_444 ?
Al1 O1 O1 127.67(5) 38_444 38_444 ?
Yb1 O1 O1 55.36(6) . 38_444 ?
Yb1 O1 O1 51.16(6) 5 38_444 ?
O1 O1 O1 91.52(3) 9 38_444 ?
O1 O1 O1 88.16(4) 5 38_444 ?
O1 O1 O1 78.02(6) 28_445 38_444 ?
O1 O1 O1 144.28(8) 81 38_444 ?
O1 O1 O1 150.09(8) 77 38_444 ?
Al2 O1 O1 86.01(8) . 22_554 ?
Al1 O1 O1 99.37(10) 38_444 22_554 ?
Yb1 O1 O1 148.29(9) . 22_554 ?
Yb1 O1 O1 52.93(4) 5 22_554 ?
O1 O1 O1 136.96(10) 9 22_554 ?
O1 O1 O1 77.47(10) 5 22_554 ?
O1 O1 O1 119.60(10) 28_445 22_554 ?
O1 O1 O1 62.57(8) 81 22_554 ?
O1 O1 O1 115.21(7) 77 22_554 ?
O1 O1 O1 93.49(7) 38_444 22_554 ?
Al2 O1 O1 32.70(3) . 89_655 ?
Al1 O1 O1 97.45(9) 38_444 89_655 ?
Yb1 O1 O1 110.57(7) . 89_655 ?
Yb1 O1 O1 137.40(9) 5 89_655 ?
O1 O1 O1 119.19(10) 9 89_655 ?
O1 O1 O1 135.77(5) 5 89_655 ?
O1 O1 O1 63.00(4) 28_445 89_655 ?
O1 O1 O1 73.82(9) 81 89_655 ?
O1 O1 O1 60.48(9) 77 89_655 ?
O1 O1 O1 134.09(5) 38_444 89_655 ?
O1 O1 O1 86.08(5) 22_554 89_655 ?
Al2 O1 O1 32.70(3) . 68_656 ?
Al1 O1 O1 140.56(11) 38_444 68_656 ?
Yb1 O1 O1 110.57(7) . 68_656 ?
Yb1 O1 O1 89.56(8) 5 68_656 ?
O1 O1 O1 166.06(12) 9 68_656 ?
O1 O1 O1 133.85(11) 5 68_656 ?
O1 O1 O1 63.00(4) 28_445 68_656 ?
O1 O1 O1 98.61(9) 81 68_656 ?
O1 O1 O1 114.17(8) 77 68_656 ?
O1 O1 O1 87.86(5) 38_444 68_656 ?
O1 O1 O1 56.95(9) 22_554 68_656 ?
O1 O1 O1 54.00(7) 89_655 68_656 ?
Al2 O1 Al2 86.91(6) . 81 ?
Al1 O1 Al2 74.30(5) 38_444 81 ?
Yb1 O1 Al2 178.92(8) . 81 ?
Yb1 O1 Al2 77.88(5) 5 81 ?
O1 O1 Al2 120.48(5) 9 81 ?
O1 O1 Al2 74.60(7) 5 81 ?
O1 O1 Al2 127.08(3) 28_445 81 ?
O1 O1 Al2 32.35(4) 81 81 ?
O1 O1 Al2 82.99(7) 77 81 ?
O1 O1 Al2 124.97(9) 38_444 81 ?
O1 O1 Al2 32.26(4) 22_554 81 ?
O1 O1 Al2 70.00(7) 89_655 81 ?
O1 O1 Al2 70.51(7) 68_656 81 ?
Al2 O1 O1 80.62(8) . 15_554 ?
Al1 O1 O1 137.42(8) 38_444 15_554 ?
Yb1 O1 O1 101.11(6) . 15_554 ?
Yb1 O1 O1 41.01(3) 5 15_554 ?
O1 O1 O1 135.74(5) 9 15_554 ?
O1 O1 O1 94.09(8) 5 15_554 ?
O1 O1 O1 89.59(10) 28_445 15_554 ?
O1 O1 O1 109.78(5) 81 15_554 ?
O1 O1 O1 160.29(8) 77 15_554 ?
O1 O1 O1 49.48(6) 38_444 15_554 ?
O1 O1 O1 47.54(8) 22_554 15_554 ?
O1 O1 O1 104.48(7) 89_655 15_554 ?
O1 O1 O1 50.91(8) 68_656 15_554 ?
Al2 O1 O1 79.55(6) 81 15_554 ?
Al2 O1 O1 79.85(5) . 16_545 ?
Al1 O1 O1 82.48(7) 38_444 16_545 ?
Yb1 O1 O1 43.88(5) . 16_545 ?
Yb1 O1 O1 143.93(8) 5 16_545 ?
O1 O1 O1 54.99(9) 9 16_545 ?
O1 O1 O1 114.67(9) 5 16_545 ?
O1 O1 O1 52.50(7) 28_445 16_545 ?
O1 O1 O1 110.94(5) 81 16_545 ?
O1 O1 O1 55.28(6) 77 16_545 ?
O1 O1 O1 98.91(9) 38_444 16_545 ?
O1 O1 O1 162.76(3) 22_554 16_545 ?
O1 O1 O1 76.69(3) 89_655 16_545 ?
O1 O1 O1 111.36(6) 68_656 16_545 ?
Al2 O1 O1 135.93(5) 81 16_545 ?
O1 O1 O1 137.72(5) 15_554 16_545 ?
loop_
_geom_bond_atom_site_label_1
_geom_bond_atom_site_label_2
_geom_bond_distance
_geom_bond_site_symmetry_2
_geom_bond_publ_flag
Yb1 O1 2.2823(18) 43_444 ?
Yb1 O1 2.2823(18) . ?
Yb1 O1 2.2823(18) 28_445 ?
Yb1 O1 2.2823(18) 18_545 ?
Yb1 O1 2.4107(18) 38_444 ?
Yb1 O1 2.4107(18) 9 ?
Yb1 O1 2.4107(18) 16_545 ?
Yb1 O1 2.4107(18) 35_445 ?
Yb1 Al2 2.9795(4) . ?
Yb1 Al2 2.9796(4) 50_556 ?
Yb1 Al1 3.3312(4) . ?
Yb1 Al1 3.3312(4) 38_444 ?
Al1 O1 1.9165(18) 43_444 ?
Al1 O1 1.9165(18) 38_444 ?
Al1 O1 1.9165(18) 96 ?
Al1 O1 1.9165(18) 48_444 ?
Al1 O1 1.9165(18) 91 ?
Al1 O1 1.9165(18) 86 ?
Al1 Yb1 3.3312(4) 9 ?
Al1 Yb1 3.3312(4) 57 ?
Al1 Yb1 3.3312(4) 53 ?
Al1 Yb1 3.3312(4) 5 ?
Al1 Yb1 3.3312(4) 49 ?
Al1 O1 4.2598(19) . ?
Al1 Al1 20.643(2) 49_666 ?
Al2 O1 1.7615(18) 89_655 ?
Al2 O1 1.7615(18) 68_656 ?
Al2 O1 1.7615(18) 28_445 ?
Al2 O1 1.7615(18) . ?
Al2 Yb1 2.9796(4) 50_656 ?
Al2 O1 3.2922(18) 54_655 ?
Al2 O1 3.2922(18) 77 ?
Al2 O1 3.2922(18) 45_445 ?
Al2 O1 3.2922(18) 22_554 ?
Al2 Yb1 3.6492(4) 81 ?
Al2 Yb1 3.6492(4) 5 ?
O1 Al1 1.9165(18) 38_444 ?
O1 Yb1 2.4107(18) 5 ?
O1 O1 2.618(3) 9 ?
O1 O1 2.618(3) 5 ?
O1 O1 2.692(4) 28_445 ?
O1 O1 2.799(3) 81 ?
O1 O1 2.799(3) 77 ?
O1 O1 2.809(4) 38_444 ?
O1 O1 2.906(4) 22_554 ?
O1 O1 2.965(3) 89_655 ?
O1 O1 2.965(3) 68_656 ?
O1 Al2 3.2922(18) 81 ?
O1 O1 3.4640(14) 15_554 ?
O1 O1 3.4640(14) 16_545 ?
loop_
_geom_torsion_atom_site_label_1
_geom_torsion_atom_site_label_2
_geom_torsion_atom_site_label_3
_geom_torsion_atom_site_label_4
_geom_torsion
_geom_torsion_site_symmetry_1
_geom_torsion_site_symmetry_2
_geom_torsion_site_symmetry_3
_geom_torsion_site_symmetry_4
_geom_torsion_publ_flag
Al1 Al1 Al1 O1 3.13(7) ? . 49_666 43_444 ?
