#------------------------------------------------------------------------------
#$Date: 2016-03-23 01:54:03 +0200 (Wed, 23 Mar 2016) $
#$Revision: 179160 $
#$URL: svn://www.crystallography.net/cod/cif/4/31/21/4312149.cif $
#------------------------------------------------------------------------------
#
# This file is available in the Crystallography Open Database (COD),
# http://www.crystallography.net/
#
# All data on this site have been placed in the public domain by the
# contributors.
#
data_4312149
loop_
_publ_author_name
'\/Lukasz Dobrzycki'
'Ewa Bulska'
'Dorota Anna Pawlak'
'Zygmunt Frukacz'
'Krzysztof Wo\'zniak'
_publ_section_title
;
 Structure of YAG Crystals Doped/Substituted with Erbium and Ytterbium
;
_journal_name_full               'Inorganic Chemistry'
_journal_page_first              7656
_journal_page_last               7664
_journal_paper_doi               10.1021/ic049920z
_journal_volume                  43
_journal_year                    2004
_chemical_formula_sum            'Al5 O12 Y1.55 Yb1.45'
_chemical_formula_weight         715.30
_chemical_name_systematic
; 
 ? 
;
_space_group_IT_number           230
_symmetry_cell_setting           cubic
_symmetry_space_group_name_Hall  '-I 4bd 2c 3'
_symmetry_space_group_name_H-M   'I a -3 d'
_atom_sites_solution_hydrogens   geom
_atom_sites_solution_primary     direct
_atom_sites_solution_secondary   difmap
_audit_creation_method           SHELXL-97
_cell_angle_alpha                90.00
_cell_angle_beta                 90.00
_cell_angle_gamma                90.00
_cell_formula_units_Z            8
_cell_length_a                   11.9716(14)
_cell_length_b                   11.9716(14)
_cell_length_c                   11.9716(14)
_cell_measurement_temperature    293(2)
_cell_volume                     1715.8(3)
_computing_structure_refinement  'SHELXL-97 (Sheldrick, 1997)'
_computing_structure_solution    'SHELXS-97 (Sheldrick, 1990)'
_diffrn_ambient_temperature      293(2)
_diffrn_measured_fraction_theta_full 1.000
_diffrn_measured_fraction_theta_max 1.000
_diffrn_radiation_monochromator  graphite
_diffrn_radiation_source         'fine-focus sealed tube'
_diffrn_radiation_type           MoK\a
_diffrn_radiation_wavelength     0.71073
_diffrn_reflns_av_R_equivalents  0.0000
_diffrn_reflns_av_sigmaI/netI    0.0748
_diffrn_reflns_limit_h_max       12
_diffrn_reflns_limit_h_min       0
_diffrn_reflns_limit_k_max       15
_diffrn_reflns_limit_k_min       0
_diffrn_reflns_limit_l_max       21
_diffrn_reflns_limit_l_min       2
_diffrn_reflns_number            461
_diffrn_reflns_theta_full        40.26
_diffrn_reflns_theta_max         40.26
_diffrn_reflns_theta_min         4.17
_exptl_absorpt_coefficient_mu    26.653
_exptl_crystal_density_diffrn    5.538
_exptl_crystal_density_method    'not measured'
_exptl_crystal_F_000             2583
_refine_diff_density_max         1.339
_refine_diff_density_min         -1.004
_refine_diff_density_rms         0.179
_refine_ls_extinction_coef       0.00075(2)
_refine_ls_extinction_expression Fc^*^=kFc[1+0.001xFc^2^\l^3^/sin(2\q)]^-1/4^
_refine_ls_extinction_method     SHELXL
_refine_ls_goodness_of_fit_ref   0.418
_refine_ls_hydrogen_treatment    mixed
_refine_ls_matrix_type           full
_refine_ls_number_parameters     18
_refine_ls_number_reflns         461
_refine_ls_number_restraints     0
_refine_ls_restrained_S_all      0.418
_refine_ls_R_factor_all          0.0358
_refine_ls_R_factor_gt           0.0150
_refine_ls_shift/su_max          0.135
_refine_ls_shift/su_mean         0.008
_refine_ls_structure_factor_coef Fsqd
_refine_ls_weighting_details
'calc w=1/[\s^2^(Fo^2^)+(0.0000P)^2^+0.0000P] where P=(Fo^2^+2Fc^2^)/3'
_refine_ls_weighting_scheme      calc
_refine_ls_wR_factor_gt          0.0262
_refine_ls_wR_factor_ref         0.0287
_reflns_number_gt                301
_reflns_number_total             461
_reflns_threshold_expression     >2sigma(I)
_cod_data_source_file            ic049920zsi20040119_085908_21.cif
_cod_data_source_block           yb50
_cod_database_code               4312149
loop_
_symmetry_equiv_pos_as_xyz
'x, y, z'
'-x+1/2, -y, z+1/2'
'-x, y+1/2, -z+1/2'
'x+1/2, -y+1/2, -z'
'z, x, y'
'z+1/2, -x+1/2, -y'
'-z+1/2, -x, y+1/2'
'-z, x+1/2, -y+1/2'
'y, z, x'
'-y, z+1/2, -x+1/2'
'y+1/2, -z+1/2, -x'
'-y+1/2, -z, x+1/2'
'y+3/4, x+1/4, -z+1/4'
'-y+3/4, -x+3/4, -z+3/4'
'y+1/4, -x+1/4, z+3/4'
'-y+1/4, x+3/4, z+1/4'
'x+3/4, z+1/4, -y+1/4'
'-x+1/4, z+3/4, y+1/4'
'-x+3/4, -z+3/4, -y+3/4'
'x+1/4, -z+1/4, y+3/4'
'z+3/4, y+1/4, -x+1/4'
'z+1/4, -y+1/4, x+3/4'
'-z+1/4, y+3/4, x+1/4'
'-z+3/4, -y+3/4, -x+3/4'
'x+1/2, y+1/2, z+1/2'
'-x+1, -y+1/2, z+1'
'-x+1/2, y+1, -z+1'
'x+1, -y+1, -z+1/2'
'z+1/2, x+1/2, y+1/2'
'z+1, -x+1, -y+1/2'
'-z+1, -x+1/2, y+1'
'-z+1/2, x+1, -y+1'
'y+1/2, z+1/2, x+1/2'
'-y+1/2, z+1, -x+1'
'y+1, -z+1, -x+1/2'
'-y+1, -z+1/2, x+1'
'y+5/4, x+3/4, -z+3/4'
'-y+5/4, -x+5/4, -z+5/4'
'y+3/4, -x+3/4, z+5/4'
'-y+3/4, x+5/4, z+3/4'
'x+5/4, z+3/4, -y+3/4'
'-x+3/4, z+5/4, y+3/4'
'-x+5/4, -z+5/4, -y+5/4'
'x+3/4, -z+3/4, y+5/4'
'z+5/4, y+3/4, -x+3/4'
'z+3/4, -y+3/4, x+5/4'
'-z+3/4, y+5/4, x+3/4'
'-z+5/4, -y+5/4, -x+5/4'
'-x, -y, -z'
'x-1/2, y, -z-1/2'
'x, -y-1/2, z-1/2'
'-x-1/2, y-1/2, z'
'-z, -x, -y'
'-z-1/2, x-1/2, y'
'z-1/2, x, -y-1/2'
'z, -x-1/2, y-1/2'
'-y, -z, -x'
'y, -z-1/2, x-1/2'
'-y-1/2, z-1/2, x'
'y-1/2, z, -x-1/2'
'-y-3/4, -x-1/4, z-1/4'
'y-3/4, x-3/4, z-3/4'
'-y-1/4, x-1/4, -z-3/4'
'y-1/4, -x-3/4, -z-1/4'
'-x-3/4, -z-1/4, y-1/4'
'x-1/4, -z-3/4, -y-1/4'
'x-3/4, z-3/4, y-3/4'
'-x-1/4, z-1/4, -y-3/4'
'-z-3/4, -y-1/4, x-1/4'
'-z-1/4, y-1/4, -x-3/4'
'z-1/4, -y-3/4, -x-1/4'
'z-3/4, y-3/4, x-3/4'
'-x+1/2, -y+1/2, -z+1/2'
'x, y+1/2, -z'
'x+1/2, -y, z'
'-x, y, z+1/2'
'-z+1/2, -x+1/2, -y+1/2'
'-z, x, y+1/2'
'z, x+1/2, -y'
'z+1/2, -x, y'
'-y+1/2, -z+1/2, -x+1/2'
'y+1/2, -z, x'
'-y, z, x+1/2'
'y, z+1/2, -x'
'-y-1/4, -x+1/4, z+1/4'
'y-1/4, x-1/4, z-1/4'
'-y+1/4, x+1/4, -z-1/4'
'y+1/4, -x-1/4, -z+1/4'
'-x-1/4, -z+1/4, y+1/4'
'x+1/4, -z-1/4, -y+1/4'
'x-1/4, z-1/4, y-1/4'
'-x+1/4, z+1/4, -y-1/4'
'-z-1/4, -y+1/4, x+1/4'
'-z+1/4, y+1/4, -x-1/4'
'z+1/4, -y-1/4, -x+1/4'
'z-1/4, y-1/4, x-1/4'
loop_
_atom_site_label
_atom_site_type_symbol
_atom_site_fract_x
_atom_site_fract_y
_atom_site_fract_z
_atom_site_U_iso_or_equiv
_atom_site_adp_type
_atom_site_occupancy
_atom_site_symmetry_multiplicity
_atom_site_calc_flag
_atom_site_refinement_flags
_atom_site_disorder_assembly
_atom_site_disorder_group
Yb1 Yb 0.1250 0.0000 0.2500 0.00474(7) Uani 0.48 4 d SP . .
Y1 Y 0.1250 0.0000 0.2500 0.00474(7) Uani 0.52 4 d SP . .
Al1 Al 0.0000 0.0000 0.0000 0.0012(2) Uani 1 6 d S . .
Al2 Al 0.3750 0.0000 0.2500 0.00032(19) Uani 1 4 d S . .
O1 O 0.28007(15) 0.10089(14) 0.19907(15) 0.0035(3) Uani 1 1 d . . .
loop_
_atom_site_aniso_label
_atom_site_aniso_U_11
_atom_site_aniso_U_22
_atom_site_aniso_U_33
_atom_site_aniso_U_23
_atom_site_aniso_U_13
_atom_site_aniso_U_12
Yb1 0.00384(11) 0.00520(8) 0.00520(8) 0.00084(12) 0.000 0.000
Y1 0.00384(11) 0.00520(8) 0.00520(8) 0.00084(12) 0.000 0.000
Al1 0.0012(2) 0.0012(2) 0.0012(2) 0.0000(4) 0.0000(4) 0.0000(4)
Al2 0.0000(5) 0.0005(3) 0.0005(3) 0.000 0.000 0.000
O1 0.0028(6) 0.0037(6) 0.0039(6) 0.0002(5) 0.0008(6) 0.0001(5)
loop_
_atom_type_symbol
_atom_type_description
_atom_type_scat_dispersion_real
_atom_type_scat_dispersion_imag
_atom_type_scat_source
O O 0.0106 0.0060 'International Tables Vol C Tables 4.2.6.8 and 6.1.1.4'
Al Al 0.0645 0.0514 'International Tables Vol C Tables 4.2.6.8 and 6.1.1.4'
Y Y -2.7962 3.5667 'International Tables Vol C Tables 4.2.6.8 and 6.1.1.4'
Yb Yb -0.3850 5.5486 'International Tables Vol C Tables 4.2.6.8 and 6.1.1.4'
loop_
_geom_angle_atom_site_label_1
_geom_angle_atom_site_label_2
_geom_angle_atom_site_label_3
_geom_angle
_geom_angle_site_symmetry_1
_geom_angle_site_symmetry_3
_geom_angle_publ_flag
O1 Yb1 O1 72.17(9) 18_545 43_444 ?
O1 Yb1 O1 158.78(9) 18_545 . ?
O1 Yb1 O1 111.97(9) 43_444 . ?
O1 Yb1 O1 111.97(9) 18_545 28_445 ?
O1 Yb1 O1 158.78(9) 43_444 28_445 ?
O1 Yb1 O1 72.17(9) . 28_445 ?
O1 Yb1 O1 67.62(8) 18_545 16_545 ?
O1 Yb1 O1 124.95(4) 43_444 16_545 ?
O1 Yb1 O1 94.96(5) . 16_545 ?
O1 Yb1 O1 73.82(7) 28_445 16_545 ?
O1 Yb1 O1 73.82(7) 18_545 35_445 ?
O1 Yb1 O1 94.96(5) 43_444 35_445 ?
O1 Yb1 O1 124.95(4) . 35_445 ?
O1 Yb1 O1 67.62(8) 28_445 35_445 ?
O1 Yb1 O1 107.78(8) 16_545 35_445 ?
O1 Yb1 O1 94.96(5) 18_545 9 ?
O1 Yb1 O1 73.82(7) 43_444 9 ?
O1 Yb1 O1 67.62(8) . 9 ?
O1 Yb1 O1 124.95(4) 28_445 9 ?
O1 Yb1 O1 73.91(8) 16_545 9 ?
O1 Yb1 O1 166.34(8) 35_445 9 ?
O1 Yb1 O1 124.95(4) 18_545 38_444 ?
O1 Yb1 O1 67.62(8) 43_444 38_444 ?
O1 Yb1 O1 73.82(7) . 38_444 ?
O1 Yb1 O1 94.96(5) 28_445 38_444 ?
O1 Yb1 O1 166.34(8) 16_545 38_444 ?
O1 Yb1 O1 73.91(8) 35_445 38_444 ?
O1 Yb1 O1 107.78(8) 9 38_444 ?
O1 Yb1 Al2 143.92(4) 18_545 . ?
O1 Yb1 Al2 143.92(4) 43_444 . ?
O1 Yb1 Al2 36.08(4) . . ?
O1 Yb1 Al2 36.08(4) 28_445 . ?
O1 Yb1 Al2 83.17(4) 16_545 . ?
O1 Yb1 Al2 96.83(4) 35_445 . ?
O1 Yb1 Al2 96.83(4) 9 . ?
O1 Yb1 Al2 83.17(4) 38_444 . ?
O1 Yb1 Al2 36.08(4) 18_545 50_556 ?
O1 Yb1 Al2 36.08(4) 43_444 50_556 ?
O1 Yb1 Al2 143.92(4) . 50_556 ?
O1 Yb1 Al2 143.92(4) 28_445 50_556 ?
O1 Yb1 Al2 96.83(4) 16_545 50_556 ?
O1 Yb1 Al2 83.17(4) 35_445 50_556 ?
O1 Yb1 Al2 83.17(4) 9 50_556 ?
O1 Yb1 Al2 96.83(4) 38_444 50_556 ?
Al2 Yb1 Al2 180.0 . 50_556 ?
O1 Yb1 Al1 96.25(4) 18_545 . ?
O1 Yb1 Al1 33.73(4) 43_444 . ?
O1 Yb1 Al1 97.13(5) . . ?
O1 Yb1 Al1 126.78(5) 28_445 . ?
O1 Yb1 Al1 158.64(4) 16_545 . ?
O1 Yb1 Al1 79.29(4) 35_445 . ?
O1 Yb1 Al1 94.56(4) 9 . ?
O1 Yb1 Al1 34.42(4) 38_444 . ?
Al2 Yb1 Al1 116.6 . . ?
Al2 Yb1 Al1 63.4 50_556 . ?
O1 Yb1 Al1 126.78(5) 18_545 38_444 ?
O1 Yb1 Al1 97.13(5) 43_444 38_444 ?
O1 Yb1 Al1 33.73(4) . 38_444 ?
O1 Yb1 Al1 96.25(4) 28_445 38_444 ?
O1 Yb1 Al1 79.29(4) 16_545 38_444 ?
O1 Yb1 Al1 158.64(4) 35_445 38_444 ?
O1 Yb1 Al1 34.42(4) 9 38_444 ?
O1 Yb1 Al1 94.56(4) 38_444 38_444 ?
Al2 Yb1 Al1 63.4 . 38_444 ?
Al2 Yb1 Al1 116.6 50_556 38_444 ?
Al1 Yb1 Al1 101.5 . 38_444 ?
O1 Al1 O1 86.48(8) 48_444 43_444 ?
O1 Al1 O1 86.48(8) 48_444 38_444 ?
O1 Al1 O1 86.48(8) 43_444 38_444 ?
O1 Al1 O1 180.00(4) 48_444 96 ?
O1 Al1 O1 93.52(8) 43_444 96 ?
O1 Al1 O1 93.52(8) 38_444 96 ?
O1 Al1 O1 93.52(8) 48_444 91 ?
O1 Al1 O1 180.00(11) 43_444 91 ?
O1 Al1 O1 93.52(8) 38_444 91 ?
O1 Al1 O1 86.48(8) 96 91 ?
O1 Al1 O1 93.52(8) 48_444 86 ?
O1 Al1 O1 93.52(8) 43_444 86 ?
O1 Al1 O1 180.00(15) 38_444 86 ?
O1 Al1 O1 86.48(8) 96 86 ?
O1 Al1 O1 86.48(8) 91 86 ?
O1 Al1 Yb1 134.40(5) 48_444 53 ?
O1 Al1 Yb1 88.53(5) 43_444 53 ?
O1 Al1 Yb1 138.38(5) 38_444 53 ?
O1 Al1 Yb1 45.60(5) 96 53 ?
O1 Al1 Yb1 91.47(5) 91 53 ?
O1 Al1 Yb1 41.62(5) 86 53 ?
O1 Al1 Yb1 41.62(5) 48_444 9 ?
O1 Al1 Yb1 45.60(5) 43_444 9 ?
O1 Al1 Yb1 91.47(5) 38_444 9 ?
O1 Al1 Yb1 138.38(5) 96 9 ?
O1 Al1 Yb1 134.40(5) 91 9 ?
O1 Al1 Yb1 88.53(5) 86 9 ?
Yb1 Al1 Yb1 113.6 53 9 ?
O1 Al1 Yb1 138.38(5) 48_444 57 ?
O1 Al1 Yb1 134.40(5) 43_444 57 ?
O1 Al1 Yb1 88.53(5) 38_444 57 ?
O1 Al1 Yb1 41.62(5) 96 57 ?
O1 Al1 Yb1 45.60(5) 91 57 ?
O1 Al1 Yb1 91.47(5) 86 57 ?
Yb1 Al1 Yb1 66.4 53 57 ?
Yb1 Al1 Yb1 180.0 9 57 ?
O1 Al1 Y1 88.53(5) 48_444 49 ?
O1 Al1 Y1 138.38(5) 43_444 49 ?
O1 Al1 Y1 134.40(5) 38_444 49 ?
O1 Al1 Y1 91.47(5) 96 49 ?
O1 Al1 Y1 41.62(5) 91 49 ?
O1 Al1 Y1 45.60(5) 86 49 ?
Yb1 Al1 Y1 66.4 53 49 ?
Yb1 Al1 Y1 113.6 9 49 ?
Yb1 Al1 Y1 66.4 57 49 ?
O1 Al1 Y1 45.60(5) 48_444 5 ?
O1 Al1 Y1 91.47(5) 43_444 5 ?
O1 Al1 Y1 41.62(5) 38_444 5 ?
O1 Al1 Y1 134.40(5) 96 5 ?
O1 Al1 Y1 88.53(5) 91 5 ?
O1 Al1 Y1 138.38(5) 86 5 ?
Yb1 Al1 Y1 180.0 53 5 ?
Yb1 Al1 Y1 66.4 9 5 ?
Yb1 Al1 Y1 113.6 57 5 ?
Y1 Al1 Y1 113.6 49 5 ?
O1 Al1 Y1 134.40(5) 48_444 53 ?
O1 Al1 Y1 88.53(5) 43_444 53 ?
O1 Al1 Y1 138.38(5) 38_444 53 ?
O1 Al1 Y1 45.60(5) 96 53 ?
O1 Al1 Y1 91.47(5) 91 53 ?
O1 Al1 Y1 41.62(5) 86 53 ?
Yb1 Al1 Y1 0.0 53 53 ?
Yb1 Al1 Y1 113.6 9 53 ?
Yb1 Al1 Y1 66.4 57 53 ?
Y1 Al1 Y1 66.4 49 53 ?
Y1 Al1 Y1 180.0 5 53 ?
O1 Al1 Y1 41.62(5) 48_444 9 ?
O1 Al1 Y1 45.60(5) 43_444 9 ?
O1 Al1 Y1 91.47(5) 38_444 9 ?
O1 Al1 Y1 138.38(5) 96 9 ?
O1 Al1 Y1 134.40(5) 91 9 ?
O1 Al1 Y1 88.53(5) 86 9 ?
Yb1 Al1 Y1 113.6 53 9 ?
Yb1 Al1 Y1 0.0 9 9 ?
Yb1 Al1 Y1 180.0 57 9 ?
Y1 Al1 Y1 113.6 49 9 ?
Y1 Al1 Y1 66.4 5 9 ?
Y1 Al1 Y1 113.6 53 9 ?
O1 Al1 Y1 138.38(5) 48_444 57 ?
O1 Al1 Y1 134.40(5) 43_444 57 ?
O1 Al1 Y1 88.53(5) 38_444 57 ?
O1 Al1 Y1 41.62(5) 96 57 ?
O1 Al1 Y1 45.60(5) 91 57 ?
O1 Al1 Y1 91.47(5) 86 57 ?
Yb1 Al1 Y1 66.4 53 57 ?
Yb1 Al1 Y1 180.0 9 57 ?
Yb1 Al1 Y1 0.0 57 57 ?
Y1 Al1 Y1 66.4 49 57 ?
Y1 Al1 Y1 113.6 5 57 ?
Y1 Al1 Y1 66.4 53 57 ?
Y1 Al1 Y1 180.0 9 57 ?
O1 Al1 Yb1 45.60(5) 48_444 5 ?
O1 Al1 Yb1 91.47(5) 43_444 5 ?
O1 Al1 Yb1 41.62(5) 38_444 5 ?
O1 Al1 Yb1 134.40(5) 96 5 ?
O1 Al1 Yb1 88.53(5) 91 5 ?
O1 Al1 Yb1 138.38(5) 86 5 ?
Yb1 Al1 Yb1 180.0 53 5 ?
Yb1 Al1 Yb1 66.4 9 5 ?
Yb1 Al1 Yb1 113.6 57 5 ?
Y1 Al1 Yb1 113.6 49 5 ?
Y1 Al1 Yb1 0.0 5 5 ?
Y1 Al1 Yb1 180.0 53 5 ?
Y1 Al1 Yb1 66.4 9 5 ?
Y1 Al1 Yb1 113.6 57 5 ?
O1 Al1 Yb1 88.53(5) 48_444 49 ?
O1 Al1 Yb1 138.38(5) 43_444 49 ?
O1 Al1 Yb1 134.40(5) 38_444 49 ?
O1 Al1 Yb1 91.47(5) 96 49 ?
O1 Al1 Yb1 41.62(5) 91 49 ?
O1 Al1 Yb1 45.60(5) 86 49 ?
Yb1 Al1 Yb1 66.4 53 49 ?
Yb1 Al1 Yb1 113.6 9 49 ?
Yb1 Al1 Yb1 66.4 57 49 ?
Y1 Al1 Yb1 0.0 49 49 ?
Y1 Al1 Yb1 113.6 5 49 ?
Y1 Al1 Yb1 66.4 53 49 ?
Y1 Al1 Yb1 113.6 9 49 ?
Y1 Al1 Yb1 66.4 57 49 ?
Yb1 Al1 Yb1 113.6 5 49 ?
O1 Al1 Yb1 91.47(5) 48_444 . ?
O1 Al1 Yb1 41.62(5) 43_444 . ?
O1 Al1 Yb1 45.60(5) 38_444 . ?
O1 Al1 Yb1 88.53(5) 96 . ?
O1 Al1 Yb1 138.38(5) 91 . ?
O1 Al1 Yb1 134.40(5) 86 . ?
Yb1 Al1 Yb1 113.6 53 . ?
Yb1 Al1 Yb1 66.4 9 . ?
Yb1 Al1 Yb1 113.6 57 . ?
Y1 Al1 Yb1 180.0 49 . ?
Y1 Al1 Yb1 66.4 5 . ?
Y1 Al1 Yb1 113.6 53 . ?
Y1 Al1 Yb1 66.4 9 . ?
Y1 Al1 Yb1 113.6 57 . ?
Yb1 Al1 Yb1 66.4 5 . ?
Yb1 Al1 Yb1 180.0 49 . ?
O1 Al1 O1 66.05(7) 48_444 . ?
O1 Al1 O1 62.64(7) 43_444 . ?
O1 Al1 O1 31.72(5) 38_444 . ?
O1 Al1 O1 113.95(7) 96 . ?
O1 Al1 O1 117.36(7) 91 . ?
O1 Al1 O1 148.28(5) 86 . ?
Yb1 Al1 O1 145.64(2) 53 . ?
Yb1 Al1 O1 59.96(2) 9 . ?
Yb1 Al1 O1 120.04(2) 57 . ?
Y1 Al1 O1 147.88(2) 49 . ?
Y1 Al1 O1 34.36(2) 5 . ?
Y1 Al1 O1 145.64(2) 53 . ?
Y1 Al1 O1 59.96(2) 9 . ?
Y1 Al1 O1 120.04(2) 57 . ?
Yb1 Al1 O1 34.36(2) 5 . ?
Yb1 Al1 O1 147.88(2) 49 . ?
Yb1 Al1 O1 32.12(2) . . ?
O1 Al1 Al1 52.29(5) 48_444 49_666 ?
O1 Al1 Al1 52.29(5) 43_444 49_666 ?
O1 Al1 Al1 52.29(5) 38_444 49_666 ?
O1 Al1 Al1 127.71(5) 96 49_666 ?
O1 Al1 Al1 127.71(5) 91 49_666 ?
O1 Al1 Al1 127.71(5) 86 49_666 ?
Yb1 Al1 Al1 140.8 53 49_666 ?
Yb1 Al1 Al1 39.2 9 49_666 ?
Yb1 Al1 Al1 140.8 57 49_666 ?
Y1 Al1 Al1 140.8 49 49_666 ?
Y1 Al1 Al1 39.2 5 49_666 ?
Y1 Al1 Al1 140.8 53 49_666 ?
Y1 Al1 Al1 39.2 9 49_666 ?
Y1 Al1 Al1 140.8 57 49_666 ?
Yb1 Al1 Al1 39.2 5 49_666 ?
Yb1 Al1 Al1 140.8 49 49_666 ?
Yb1 Al1 Al1 39.2 . 49_666 ?
O1 Al1 Al1 20.75(2) . 49_666 ?
O1 Al2 O1 114.44(6) 89_655 28_445 ?
O1 Al2 O1 99.94(12) 89_655 68_656 ?
O1 Al2 O1 114.44(6) 28_445 68_656 ?
O1 Al2 O1 114.44(6) 89_655 . ?
O1 Al2 O1 99.94(12) 28_445 . ?
O1 Al2 O1 114.44(6) 68_656 . ?
O1 Al2 Yb1 130.03(6) 89_655 . ?
O1 Al2 Yb1 49.97(6) 28_445 . ?
O1 Al2 Yb1 130.03(6) 68_656 . ?
O1 Al2 Yb1 49.97(6) . . ?
O1 Al2 Y1 49.97(6) 89_655 50_656 ?
O1 Al2 Y1 130.03(6) 28_445 50_656 ?
O1 Al2 Y1 49.97(6) 68_656 50_656 ?
O1 Al2 Y1 130.03(6) . 50_656 ?
Yb1 Al2 Y1 180.0 . 50_656 ?
O1 Al2 Yb1 49.97(6) 89_655 50_656 ?
O1 Al2 Yb1 130.03(6) 28_445 50_656 ?
O1 Al2 Yb1 49.97(6) 68_656 50_656 ?
O1 Al2 Yb1 130.03(6) . 50_656 ?
Yb1 Al2 Yb1 180.0 . 50_656 ?
Y1 Al2 Yb1 0.0 50_656 50_656 ?
O1 Al2 O1 144.82(5) 89_655 54_655 ?
O1 Al2 O1 57.91(9) 28_445 54_655 ?
O1 Al2 O1 61.84(8) 68_656 54_655 ?
O1 Al2 O1 100.70(5) . 54_655 ?
Yb1 Al2 O1 74.42(3) . 54_655 ?
Y1 Al2 O1 105.58(3) 50_656 54_655 ?
Yb1 Al2 O1 105.58(3) 50_656 54_655 ?
O1 Al2 O1 61.84(8) 89_655 77 ?
O1 Al2 O1 100.70(5) 28_445 77 ?
O1 Al2 O1 144.82(5) 68_656 77 ?
O1 Al2 O1 57.91(9) . 77 ?
Yb1 Al2 O1 74.42(3) . 77 ?
Y1 Al2 O1 105.58(3) 50_656 77 ?
Yb1 Al2 O1 105.58(3) 50_656 77 ?
O1 Al2 O1 148.85(6) 54_655 77 ?
O1 Al2 O1 100.70(5) 89_655 22_554 ?
O1 Al2 O1 144.82(5) 28_445 22_554 ?
O1 Al2 O1 57.91(9) 68_656 22_554 ?
O1 Al2 O1 61.84(8) . 22_554 ?
Yb1 Al2 O1 105.58(3) . 22_554 ?
Y1 Al2 O1 74.42(3) 50_656 22_554 ?
Yb1 Al2 O1 74.42(3) 50_656 22_554 ?
O1 Al2 O1 94.135(17) 54_655 22_554 ?
O1 Al2 O1 94.135(17) 77 22_554 ?
O1 Al2 O1 57.91(9) 89_655 45_445 ?
O1 Al2 O1 61.84(8) 28_445 45_445 ?
O1 Al2 O1 100.70(5) 68_656 45_445 ?
O1 Al2 O1 144.82(5) . 45_445 ?
Yb1 Al2 O1 105.58(3) . 45_445 ?
Y1 Al2 O1 74.42(3) 50_656 45_445 ?
Yb1 Al2 O1 74.42(3) 50_656 45_445 ?
O1 Al2 O1 94.135(17) 54_655 45_445 ?
O1 Al2 O1 94.135(17) 77 45_445 ?
O1 Al2 O1 148.85(6) 22_554 45_445 ?
Al2 O1 Al1 130.27(10) . 38_444 ?
Al2 O1 Yb1 93.95(7) . . ?
Al1 O1 Yb1 104.65(8) 38_444 . ?
Al2 O1 Y1 121.03(9) . 5 ?
Al1 O1 Y1 99.98(7) 38_444 5 ?
Yb1 O1 Y1 101.73(7) . 5 ?
Al2 O1 Yb1 121.03(9) . 5 ?
Al1 O1 Yb1 99.98(7) 38_444 5 ?
Yb1 O1 Yb1 101.73(7) . 5 ?
Y1 O1 Yb1 0.0 5 5 ?
Al2 O1 O1 134.63(12) . 9 ?
Al1 O1 O1 46.76(4) 38_444 9 ?
Yb1 O1 O1 58.55(7) . 9 ?
Y1 O1 O1 100.82(5) 5 9 ?
Yb1 O1 O1 100.82(5) 5 9 ?
Al2 O1 O1 161.52(11) . 5 ?
Al1 O1 O1 46.76(4) 38_444 5 ?
Yb1 O1 O1 104.44(6) . 5 ?
Y1 O1 O1 53.83(6) 5 5 ?
Yb1 O1 O1 53.83(6) 5 5 ?
O1 O1 O1 60.0 9 5 ?
Al2 O1 O1 40.03(6) . 28_445 ?
Al1 O1 O1 133.37(12) 38_444 28_445 ?
Yb1 O1 O1 53.92(4) . 28_445 ?
Y1 O1 O1 123.27(10) 5 28_445 ?
Yb1 O1 O1 123.27(10) 5 28_445 ?
O1 O1 O1 103.46(9) 9 28_445 ?
O1 O1 O1 158.29(4) 5 28_445 ?
Al2 O1 O1 89.74(9) . 77 ?
Al1 O1 O1 43.24(4) 38_444 77 ?
Yb1 O1 O1 96.47(5) . 77 ?
Y1 O1 O1 142.46(6) 5 77 ?
Yb1 O1 O1 142.46(6) 5 77 ?
O1 O1 O1 61.95(4) 9 77 ?
O1 O1 O1 90.0 5 77 ?
O1 O1 O1 93.96(9) 28_445 77 ?
Al2 O1 O1 103.10(10) . 81 ?
Al1 O1 O1 43.24(4) 38_444 81 ?
Yb1 O1 O1 146.93(7) . 81 ?
Y1 O1 O1 93.52(5) 5 81 ?
Yb1 O1 O1 93.52(5) 5 81 ?
O1 O1 O1 90.0 9 81 ?
O1 O1 O1 61.95(4) 5 81 ?
O1 O1 O1 136.38(8) 28_445 81 ?
O1 O1 O1 56.10(8) 77 81 ?
Al2 O1 O1 101.14(6) . 38_444 ?
Al1 O1 O1 127.45(6) 38_444 38_444 ?
Yb1 O1 O1 55.20(6) . 38_444 ?
Y1 O1 O1 50.99(6) 5 38_444 ?
Yb1 O1 O1 50.99(6) 5 38_444 ?
O1 O1 O1 91.53(3) 9 38_444 ?
O1 O1 O1 88.14(4) 5 38_444 ?
O1 O1 O1 77.79(6) 28_445 38_444 ?
O1 O1 O1 149.90(8) 77 38_444 ?
O1 O1 O1 144.06(8) 81 38_444 ?
Al2 O1 O1 85.90(7) . 22_554 ?
Al1 O1 O1 99.56(9) 38_444 22_554 ?
Yb1 O1 O1 148.01(8) . 22_554 ?
Y1 O1 O1 53.04(4) 5 22_554 ?
Yb1 O1 O1 53.04(4) 5 22_554 ?
O1 O1 O1 137.07(10) 9 22_554 ?
O1 O1 O1 77.56(9) 5 22_554 ?
O1 O1 O1 119.27(10) 28_445 22_554 ?
O1 O1 O1 115.51(7) 77 22_554 ?
O1 O1 O1 62.58(8) 81 22_554 ?
O1 O1 O1 93.38(7) 38_444 22_554 ?
Al2 O1 O1 32.78(3) . 89_655 ?
Al1 O1 O1 97.84(9) 38_444 89_655 ?
Yb1 O1 O1 110.49(6) . 89_655 ?
Y1 O1 O1 137.56(9) 5 89_655 ?
Yb1 O1 O1 137.56(9) 5 89_655 ?
O1 O1 O1 119.22(10) 9 89_655 ?
O1 O1 O1 136.00(5) 5 89_655 ?
O1 O1 O1 62.91(3) 28_445 89_655 ?
O1 O1 O1 60.70(9) 77 89_655 ?
O1 O1 O1 74.22(9) 81 89_655 ?
O1 O1 O1 133.90(4) 38_444 89_655 ?
O1 O1 O1 86.19(5) 22_554 89_655 ?
Al2 O1 O1 32.78(3) . 68_656 ?
Al1 O1 O1 140.89(11) 38_444 68_656 ?
Yb1 O1 O1 110.49(6) . 68_656 ?
Y1 O1 O1 89.34(7) 5 68_656 ?
Yb1 O1 O1 89.34(7) 5 68_656 ?
O1 O1 O1 166.20(11) 9 68_656 ?
O1 O1 O1 133.69(11) 5 68_656 ?
O1 O1 O1 62.91(3) 28_445 68_656 ?
O1 O1 O1 114.56(8) 77 68_656 ?
O1 O1 O1 98.74(9) 81 68_656 ?
O1 O1 O1 87.64(5) 38_444 68_656 ?
O1 O1 O1 56.72(9) 22_554 68_656 ?
O1 O1 O1 54.18(7) 89_655 68_656 ?
Al2 O1 Al2 87.10(6) . 81 ?
Al1 O1 Al2 74.47(5) 38_444 81 ?
Yb1 O1 Al2 178.93(7) . 81 ?
Y1 O1 Al2 77.90(5) 5 81 ?
Yb1 O1 Al2 77.90(5) 5 81 ?
O1 O1 Al2 120.49(5) 9 81 ?
O1 O1 Al2 74.52(7) 5 81 ?
O1 O1 Al2 127.13(3) 28_445 81 ?
O1 O1 Al2 83.30(7) 77 81 ?
O1 O1 Al2 32.35(4) 81 81 ?
O1 O1 Al2 124.82(9) 38_444 81 ?
O1 O1 Al2 32.25(4) 22_554 81 ?
O1 O1 Al2 70.32(7) 89_655 81 ?
O1 O1 Al2 70.53(7) 68_656 81 ?
loop_
_geom_bond_atom_site_label_1
_geom_bond_atom_site_label_2
_geom_bond_distance
_geom_bond_site_symmetry_2
_geom_bond_publ_flag
Yb1 O1 2.2971(18) 18_545 ?
Yb1 O1 2.2971(18) 43_444 ?
Yb1 O1 2.2971(18) . ?
Yb1 O1 2.2971(18) 28_445 ?
Yb1 O1 2.4275(18) 16_545 ?
Yb1 O1 2.4275(18) 35_445 ?
Yb1 O1 2.4275(18) 9 ?
Yb1 O1 2.4275(18) 38_444 ?
Yb1 Al2 2.9929(4) . ?
Yb1 Al2 2.9929(4) 50_556 ?
Yb1 Al1 3.3462(4) . ?
Yb1 Al1 3.3462(4) 38_444 ?
Al1 O1 1.9204(17) 48_444 ?
Al1 O1 1.9204(17) 43_444 ?
Al1 O1 1.9204(17) 38_444 ?
Al1 O1 1.9204(17) 96 ?
Al1 O1 1.9204(17) 91 ?
Al1 O1 1.9204(17) 86 ?
Al1 Yb1 3.3462(4) 53 ?
Al1 Yb1 3.3462(4) 9 ?
Al1 Yb1 3.3462(4) 57 ?
Al1 Y1 3.3462(4) 49 ?
Al1 Y1 3.3462(4) 5 ?
Al1 Y1 3.3462(4) 53 ?
Al1 Y1 3.3462(4) 9 ?
Al1 Y1 3.3462(4) 57 ?
Al1 Yb1 3.3462(4) 5 ?
Al1 Yb1 3.3462(4) 49 ?
Al1 O1 4.2873(19) . ?
Al1 Al1 20.735(2) 49_666 ?
Al2 O1 1.7669(17) 89_655 ?
Al2 O1 1.7669(17) 28_445 ?
Al2 O1 1.7669(17) 68_656 ?
Al2 O1 1.7669(17) . ?
Al2 Y1 2.9929(4) 50_656 ?
Al2 Yb1 2.9929(4) 50_656 ?
Al2 O1 3.3023(18) 54_655 ?
Al2 O1 3.3023(18) 77 ?
Al2 O1 3.3023(18) 22_554 ?
Al2 O1 3.3023(18) 45_445 ?
O1 Al1 1.9204(17) 38_444 ?
O1 Y1 2.4275(18) 5 ?
O1 Yb1 2.4275(18) 5 ?
O1 O1 2.631(3) 9 ?
O1 O1 2.631(3) 5 ?
O1 O1 2.706(3) 28_445 ?
O1 O1 2.798(3) 77 ?
O1 O1 2.798(3) 81 ?
O1 O1 2.839(4) 38_444 ?
O1 O1 2.919(4) 22_554 ?
O1 O1 2.971(3) 89_655 ?
O1 O1 2.971(3) 68_656 ?
O1 Al2 3.3023(18) 81 ?
loop_
_geom_torsion_atom_site_label_1
_geom_torsion_atom_site_label_2
_geom_torsion_atom_site_label_3
_geom_torsion_atom_site_label_4
_geom_torsion
_geom_torsion_site_symmetry_1
_geom_torsion_site_symmetry_2
_geom_torsion_site_symmetry_3
_geom_torsion_site_symmetry_4
_geom_torsion_publ_flag
Al1 Al1 Al1 O1 3.17(7) ? . 49_666 43_444 ?
