#------------------------------------------------------------------------------
#$Date: 2016-02-16 22:30:59 +0200 (Tue, 16 Feb 2016) $
#$Revision: 176467 $
#$URL: svn://www.crystallography.net/cod/cif/4/32/62/4326251.cif $
#------------------------------------------------------------------------------
#
# This file is available in the Crystallography Open Database (COD),
# http://www.crystallography.net/
#
# All data on this site have been placed in the public domain by the
# contributors.
#
data_4326251
loop_
_publ_author_name
'Prangya Parimita Sahoo'
'S. Sumithra'
'Giridhar Madras'
'T. N. Guru Row'
_publ_contact_author_address
; 
Prof. T. N. Guru Row
Solid State and Structural Chemistry Unit
Indian Institute of Science
Bangalore 560012
India 
;
_publ_contact_author_email       ssctng@sscu.iisc.ernet.in
_publ_contact_author_fax         '(91) 80 2360 1310'
_publ_contact_author_name
;
Prof. T. N. Guru Row
;
_publ_contact_author_phone       '(91) 80 2293 2796'
_publ_section_title
;
 Synthesis, Structure, Negative Thermal Expansion, and Photocatalytic
 Property of Mo Doped ZrV2O7
;
_journal_name_full               'Inorganic Chemistry'
_journal_page_first              8774
_journal_page_last               8781
_journal_paper_doi               10.1021/ic201224g
_journal_volume                  50
_journal_year                    2011
_chemical_formula_moiety         'Mo0.5 O7.25 V1.5 Zr'
_chemical_formula_sum            'Mo0.5 O7.25 V1.5 Zr'
_chemical_formula_weight         332.0
_chemical_name_systematic
;
 ?
;
_space_group_IT_number           205
_symmetry_cell_setting           cubic
_symmetry_Int_Tables_number      205
_symmetry_space_group_name_Hall  '-P 2ac 2ab 3'
_symmetry_space_group_name_H-M   'P a -3'
_atom_sites_solution_hydrogens   none
_atom_sites_solution_primary     direct
_atom_sites_solution_secondary   difmap
_audit_creation_method           SHELXL-97
_cell_angle_alpha                90.00
_cell_angle_beta                 90.00
_cell_angle_gamma                90.00
_cell_formula_units_Z            4
_cell_length_a                   8.8969(4)
_cell_length_b                   8.8969(4)
_cell_length_c                   8.8969(4)
_cell_measurement_reflns_used    710
_cell_measurement_temperature    298(2)
_cell_measurement_theta_max      29.2228
_cell_measurement_theta_min      3.2317
_cell_volume                     704.23(5)
_computing_structure_refinement  'SHELXL-97 (Sheldrick, 2008)'
_diffrn_ambient_temperature      298(2)
_diffrn_detector_area_resol_mean 16.0839
_diffrn_measured_fraction_theta_full 0.98
_diffrn_measured_fraction_theta_max 0.98
_diffrn_measurement_device_type  'Goniometer Xcalibur, detector: Eos (Mova)'
_diffrn_measurement_method       '\w scans'
_diffrn_radiation_monochromator  graphite
_diffrn_radiation_source         'fine-focus sealed tube'
_diffrn_radiation_type           MoK\a
_diffrn_radiation_wavelength     0.71073
_diffrn_reflns_av_R_equivalents  0.0304
_diffrn_reflns_av_sigmaI/netI    0.0273
_diffrn_reflns_limit_h_max       4
_diffrn_reflns_limit_h_min       -11
_diffrn_reflns_limit_k_max       11
_diffrn_reflns_limit_k_min       -8
_diffrn_reflns_limit_l_max       10
_diffrn_reflns_limit_l_min       -9
_diffrn_reflns_number            1420
_diffrn_reflns_theta_full        28.31
_diffrn_reflns_theta_max         28.31
_diffrn_reflns_theta_min         3.97
_exptl_absorpt_coefficient_mu    4.263
_exptl_absorpt_correction_T_max  0.8068
_exptl_absorpt_correction_T_min  0.3463
_exptl_absorpt_correction_type   multi-scan
_exptl_absorpt_process_details   'symmetry-related measurements'
_exptl_crystal_colour            brown-yellow
_exptl_crystal_density_diffrn    3.131
_exptl_crystal_description       block
_exptl_crystal_F_000             614
_exptl_crystal_size_max          0.30
_exptl_crystal_size_mid          0.20
_exptl_crystal_size_min          0.05
_refine_diff_density_max         0.287
_refine_diff_density_min         -0.324
_refine_diff_density_rms         0.085
_refine_ls_extinction_method     none
_refine_ls_goodness_of_fit_ref   0.948
_refine_ls_hydrogen_treatment    none
_refine_ls_matrix_type           full
_refine_ls_number_parameters     23
_refine_ls_number_reflns         288
_refine_ls_number_restraints     0
_refine_ls_restrained_S_all      0.948
_refine_ls_R_factor_all          0.0362
_refine_ls_R_factor_gt           0.0213
_refine_ls_shift/su_max          0.000
_refine_ls_shift/su_mean         0.000
_refine_ls_structure_factor_coef Fsqd
_refine_ls_weighting_details
'calc w=1/[\s^2^(Fo^2^)+(0.0253P)^2^+0.0000P] where P=(Fo^2^+2Fc^2^)/3'
_refine_ls_weighting_scheme      calc
_refine_ls_wR_factor_gt          0.0436
_refine_ls_wR_factor_ref         0.0457
_reflns_number_gt                220
_reflns_number_total             288
_reflns_threshold_expression     >2\s(I)
_cod_data_source_file            ic201224g_si_002_2.cif
_cod_data_source_block           ZrVMo_298
_cod_original_cell_volume        704.24(6)
_cod_original_formula_sum        'Mo0.5 O7.25 V1.50 Zr'
_cod_database_code               4326251
loop_
_symmetry_equiv_pos_as_xyz
'x, y, z'
'-x+1/2, -y, z+1/2'
'-x, y+1/2, -z+1/2'
'x+1/2, -y+1/2, -z'
'z, x, y'
'z+1/2, -x+1/2, -y'
'-z+1/2, -x, y+1/2'
'-z, x+1/2, -y+1/2'
'y, z, x'
'-y, z+1/2, -x+1/2'
'y+1/2, -z+1/2, -x'
'-y+1/2, -z, x+1/2'
'-x, -y, -z'
'x-1/2, y, -z-1/2'
'x, -y-1/2, z-1/2'
'-x-1/2, y-1/2, z'
'-z, -x, -y'
'-z-1/2, x-1/2, y'
'z-1/2, x, -y-1/2'
'z, -x-1/2, y-1/2'
'-y, -z, -x'
'y, -z-1/2, x-1/2'
'-y-1/2, z-1/2, x'
'y-1/2, z, -x-1/2'
loop_
_atom_site_label
_atom_site_type_symbol
_atom_site_fract_x
_atom_site_fract_y
_atom_site_fract_z
_atom_site_U_iso_or_equiv
_atom_site_adp_type
_atom_site_occupancy
_atom_site_symmetry_multiplicity
_atom_site_calc_flag
_atom_site_refinement_flags
Zr1 Zr 0.0000 0.0000 0.0000 0.02106(19) Uani 1 6 d S
V1 V 0.38772(7) 0.38772(7) 0.38772(7) 0.0165(2) Uani 0.75 3 d SP
Mo1 Mo 0.38772(7) 0.38772(7) 0.38772(7) 0.0165(2) Uani 0.10 3 d SP
Mo2 Mo 0.3364(2) 0.3364(2) 0.3364(2) 0.0212(6) Uani 0.15 3 d SP
O1 O 0.5000 0.5000 0.5000 0.069(2) Uani 1 6 d S
O2 O 0.4387(3) 0.2062(2) 0.4145(3) 0.0485(6) Uani 1 1 d .
O1A O 0.2267(18) 0.2267(18) 0.2267(18) 0.052(10) Uani 0.13 3 d SP
loop_
_atom_site_aniso_label
_atom_site_aniso_U_11
_atom_site_aniso_U_22
_atom_site_aniso_U_33
_atom_site_aniso_U_23
_atom_site_aniso_U_13
_atom_site_aniso_U_12
Zr1 0.02106(19) 0.02106(19) 0.02106(19) 0.00159(17) 0.00159(17) 0.00159(17)
V1 0.0165(2) 0.0165(2) 0.0165(2) 0.0018(2) 0.0018(2) 0.0018(2)
Mo1 0.0165(2) 0.0165(2) 0.0165(2) 0.0018(2) 0.0018(2) 0.0018(2)
Mo2 0.0212(6) 0.0212(6) 0.0212(6) 0.0040(8) 0.0040(8) 0.0040(8)
O1 0.069(2) 0.069(2) 0.069(2) -0.0211(19) -0.0211(19) -0.0211(19)
O2 0.0544(14) 0.0321(13) 0.0590(16) 0.0109(12) 0.0048(14) 0.0135(12)
O1A 0.052(10) 0.052(10) 0.052(10) -0.020(9) -0.020(9) -0.020(9)
loop_
_atom_type_symbol
_atom_type_description
_atom_type_scat_dispersion_real
_atom_type_scat_dispersion_imag
_atom_type_scat_source
O O 0.0106 0.0060 'International Tables Vol C Tables 4.2.6.8 and 6.1.1.4'
V V 0.3005 0.5294 'International Tables Vol C Tables 4.2.6.8 and 6.1.1.4'
Zr Zr -2.9673 0.5597 'International Tables Vol C Tables 4.2.6.8 and 6.1.1.4'
Mo Mo -1.6832 0.6857 'International Tables Vol C Tables 4.2.6.8 and 6.1.1.4'
loop_
_geom_angle_atom_site_label_1
_geom_angle_atom_site_label_2
_geom_angle_atom_site_label_3
_geom_angle
_geom_angle_site_symmetry_1
_geom_angle_site_symmetry_3
O2 Zr1 O2 90.27(10) 10_545 2_554
O2 Zr1 O2 90.27(10) 10_545 6_455
O2 Zr1 O2 90.27(10) 2_554 6_455
O2 Zr1 O2 180.00(12) 10_545 22_565
O2 Zr1 O2 89.73(10) 2_554 22_565
O2 Zr1 O2 89.73(10) 6_455 22_565
O2 Zr1 O2 89.73(10) 10_545 18_655
O2 Zr1 O2 89.73(10) 2_554 18_655
O2 Zr1 O2 180.00(13) 6_455 18_655
O2 Zr1 O2 90.27(10) 22_565 18_655
O2 Zr1 O2 89.73(10) 10_545 14_556
O2 Zr1 O2 180.00(17) 2_554 14_556
O2 Zr1 O2 89.73(10) 6_455 14_556
O2 Zr1 O2 90.27(10) 22_565 14_556
O2 Zr1 O2 90.27(10) 18_655 14_556
Mo2 V1 O2 71.66(8) . 9
Mo2 V1 O2 71.66(8) . 5
O2 V1 O2 110.58(8) 9 5
Mo2 V1 O2 71.66(8) . .
O2 V1 O2 110.58(8) 9 .
O2 V1 O2 110.58(8) 5 .
Mo2 V1 O1 180.00(12) . .
O2 V1 O1 108.34(8) 9 .
O2 V1 O1 108.34(8) 5 .
O2 V1 O1 108.34(8) . .
V1 Mo2 O2 80.90(15) . 9
V1 Mo2 O2 80.90(15) . 5
O2 Mo2 O2 117.55(8) 9 5
V1 Mo2 O2 80.90(15) . .
O2 Mo2 O2 117.55(8) 9 .
O2 Mo2 O2 117.55(8) 5 .
V1 Mo2 O1A 180.0(7) . .
O2 Mo2 O1A 99.10(15) 9 .
O2 Mo2 O1A 99.10(15) 5 .
O2 Mo2 O1A 99.10(15) . .
V1 O1 Mo1 180.00(3) . 13_666
V1 O1 V1 180.00(3) . 13_666
loop_
_geom_bond_atom_site_label_1
_geom_bond_atom_site_label_2
_geom_bond_distance
_geom_bond_site_symmetry_2
Zr1 O2 2.059(2) 10_545
Zr1 O2 2.059(2) 2_554
Zr1 O2 2.059(2) 6_455
Zr1 O2 2.059(2) 22_565
Zr1 O2 2.059(2) 18_655
Zr1 O2 2.059(2) 14_556
V1 Mo2 0.791(3) .
V1 O2 1.694(2) 9
V1 O2 1.694(2) 5
V1 O2 1.694(2) .
V1 O1 1.7302(10) .
Mo2 O2 1.629(2) 9
Mo2 O2 1.629(2) 5
Mo2 O2 1.629(2) .
Mo2 O1A 1.69(3) .
O1 Mo1 1.7302(10) 13_666
O1 V1 1.7302(10) 13_666
O2 Zr1 2.059(2) 2
