#------------------------------------------------------------------------------
#$Date: 2016-03-23 16:50:47 +0200 (Wed, 23 Mar 2016) $
#$Revision: 179396 $
#$URL: svn://www.crystallography.net/cod/cif/4/32/93/4329323.cif $
#------------------------------------------------------------------------------
#
# This file is available in the Crystallography Open Database (COD),
# http://www.crystallography.net/
#
# All data on this site have been placed in the public domain by the
# contributors.
#
data_4329323
loop_
_publ_author_name
'Andrew C. Malingowski'
'Peter W. Stephens'
'Ashfia Huq'
'Qingzhen Huang'
'Syed Khalid'
'Peter G. Khalifah'
_publ_section_title
;
 Substitutional Mechanism of Ni into the Wide-Band-Gap Semiconductor
 InTaO4 and Its Implications for Water Splitting Activity in the
 Wolframite Structure Type
;
_journal_name_full               'Inorganic Chemistry'
_journal_page_first              6096
_journal_page_last               6103
_journal_paper_doi               10.1021/ic202715c
_journal_volume                  51
_journal_year                    2012
_chemical_formula_sum            'Ni O'
_chemical_formula_weight         74.70
_space_group_IT_number           225
_symmetry_cell_setting           cubic
_symmetry_space_group_name_Hall  '-F 4 2 3'
_symmetry_space_group_name_H-M   'F m -3 m'
_audit_author_name               'Andrew Malingowski'
_audit_creation_date             2011-12-12T14:30
_audit_creation_method           'from EXP file using GSAS2CIF'
_audit_update_record
' 2011-12-12T14:30  Initial CIF as created by GSAS2CIF'
_cell_angle_alpha                90.0
_cell_angle_beta                 90.0
_cell_angle_gamma                90.0
_cell_formula_units_Z            4
_cell_length_a                   4.17861(22)
_cell_length_b                   4.17861
_cell_length_c                   4.17861
_cell_volume                     72.962(4)
_computing_structure_refinement  GSAS
_pd_block_id
2011-12-12T14:30|COREFINEMENT3_phase2|Andrew_Malingowski||
_pd_phase_name                   NiO
_pd_proc_ls_prof_R_factor        0.0539
_pd_proc_ls_prof_wR_factor       0.0532
_refine_ls_goodness_of_fit_all   0.91
_refine_ls_matrix_type           full
_refine_ls_number_parameters     61
_refine_ls_number_restraints     0
_refine_ls_shift/su_max          0.41
_refine_ls_shift/su_mean         0.04
_cod_data_source_file            ic202715c_si_001_3.cif
_cod_data_source_block           COREFINEMENT3_phase_2
_cod_original_cell_volume        72.962(12)
_cod_database_code               4329323
loop_
_symmetry_equiv_pos_site_id
_symmetry_equiv_pos_as_xyz
1 +x,+y,+z
2 +z,+x,+y
3 +y,+z,+x
4 +x,+y,-z
5 -z,+x,+y
6 +y,-z,+x
7 -z,+x,-y
8 -y,-z,+x
9 +y,-z,-x
10 -x,+y,-z
11 -z,-x,+y
12 +x,-y,-z
13 +y,+x,+z
14 +z,+y,+x
15 +x,+z,+y
16 +y,+x,-z
17 -z,+y,+x
18 +x,-z,+y
19 -z,+y,-x
20 -x,-z,+y
21 +x,-z,-y
22 -y,+x,-z
23 -z,-y,+x
24 +y,-x,-z
-1 -x,-y,-z
-2 -z,-x,-y
-3 -y,-z,-x
-4 -x,-y,+z
-5 +z,-x,-y
-6 -y,+z,-x
-7 +z,-x,+y
-8 +y,+z,-x
-9 -y,+z,+x
-10 +x,-y,+z
-11 +z,+x,-y
-12 -x,+y,+z
-13 -y,-x,-z
-14 -z,-y,-x
-15 -x,-z,-y
-16 -y,-x,+z
-17 +z,-y,-x
-18 -x,+z,-y
-19 +z,-y,+x
-20 +x,+z,-y
-21 -x,+z,+y
-22 +y,-x,+z
-23 +z,+y,-x
-24 -y,+x,+z
101 +x,+y+1/2,+z+1/2
102 +z,+x+1/2,+y+1/2
103 +y,+z+1/2,+x+1/2
104 +x,+y+1/2,-z+1/2
105 -z,+x+1/2,+y+1/2
106 +y,-z+1/2,+x+1/2
107 -z,+x+1/2,-y+1/2
108 -y,-z+1/2,+x+1/2
109 +y,-z+1/2,-x+1/2
110 -x,+y+1/2,-z+1/2
111 -z,-x+1/2,+y+1/2
112 +x,-y+1/2,-z+1/2
113 +y,+x+1/2,+z+1/2
114 +z,+y+1/2,+x+1/2
115 +x,+z+1/2,+y+1/2
116 +y,+x+1/2,-z+1/2
117 -z,+y+1/2,+x+1/2
118 +x,-z+1/2,+y+1/2
119 -z,+y+1/2,-x+1/2
120 -x,-z+1/2,+y+1/2
121 +x,-z+1/2,-y+1/2
122 -y,+x+1/2,-z+1/2
123 -z,-y+1/2,+x+1/2
124 +y,-x+1/2,-z+1/2
-101 -x,-y+1/2,-z+1/2
-102 -z,-x+1/2,-y+1/2
-103 -y,-z+1/2,-x+1/2
-104 -x,-y+1/2,+z+1/2
-105 +z,-x+1/2,-y+1/2
-106 -y,+z+1/2,-x+1/2
-107 +z,-x+1/2,+y+1/2
-108 +y,+z+1/2,-x+1/2
-109 -y,+z+1/2,+x+1/2
-110 +x,-y+1/2,+z+1/2
-111 +z,+x+1/2,-y+1/2
-112 -x,+y+1/2,+z+1/2
-113 -y,-x+1/2,-z+1/2
-114 -z,-y+1/2,-x+1/2
-115 -x,-z+1/2,-y+1/2
-116 -y,-x+1/2,+z+1/2
-117 +z,-y+1/2,-x+1/2
-118 -x,+z+1/2,-y+1/2
-119 +z,-y+1/2,+x+1/2
-120 +x,+z+1/2,-y+1/2
-121 -x,+z+1/2,+y+1/2
-122 +y,-x+1/2,+z+1/2
-123 +z,+y+1/2,-x+1/2
-124 -y,+x+1/2,+z+1/2
201 +x+1/2,+y,+z+1/2
202 +z+1/2,+x,+y+1/2
203 +y+1/2,+z,+x+1/2
204 +x+1/2,+y,-z+1/2
205 -z+1/2,+x,+y+1/2
206 +y+1/2,-z,+x+1/2
207 -z+1/2,+x,-y+1/2
208 -y+1/2,-z,+x+1/2
209 +y+1/2,-z,-x+1/2
210 -x+1/2,+y,-z+1/2
211 -z+1/2,-x,+y+1/2
212 +x+1/2,-y,-z+1/2
213 +y+1/2,+x,+z+1/2
214 +z+1/2,+y,+x+1/2
215 +x+1/2,+z,+y+1/2
216 +y+1/2,+x,-z+1/2
217 -z+1/2,+y,+x+1/2
218 +x+1/2,-z,+y+1/2
219 -z+1/2,+y,-x+1/2
220 -x+1/2,-z,+y+1/2
221 +x+1/2,-z,-y+1/2
222 -y+1/2,+x,-z+1/2
223 -z+1/2,-y,+x+1/2
224 +y+1/2,-x,-z+1/2
-201 -x+1/2,-y,-z+1/2
-202 -z+1/2,-x,-y+1/2
-203 -y+1/2,-z,-x+1/2
-204 -x+1/2,-y,+z+1/2
-205 +z+1/2,-x,-y+1/2
-206 -y+1/2,+z,-x+1/2
-207 +z+1/2,-x,+y+1/2
-208 +y+1/2,+z,-x+1/2
-209 -y+1/2,+z,+x+1/2
-210 +x+1/2,-y,+z+1/2
-211 +z+1/2,+x,-y+1/2
-212 -x+1/2,+y,+z+1/2
-213 -y+1/2,-x,-z+1/2
-214 -z+1/2,-y,-x+1/2
-215 -x+1/2,-z,-y+1/2
-216 -y+1/2,-x,+z+1/2
-217 +z+1/2,-y,-x+1/2
-218 -x+1/2,+z,-y+1/2
-219 +z+1/2,-y,+x+1/2
-220 +x+1/2,+z,-y+1/2
-221 -x+1/2,+z,+y+1/2
-222 +y+1/2,-x,+z+1/2
-223 +z+1/2,+y,-x+1/2
-224 -y+1/2,+x,+z+1/2
301 +x+1/2,+y+1/2,+z
302 +z+1/2,+x+1/2,+y
303 +y+1/2,+z+1/2,+x
304 +x+1/2,+y+1/2,-z
305 -z+1/2,+x+1/2,+y
306 +y+1/2,-z+1/2,+x
307 -z+1/2,+x+1/2,-y
308 -y+1/2,-z+1/2,+x
309 +y+1/2,-z+1/2,-x
310 -x+1/2,+y+1/2,-z
311 -z+1/2,-x+1/2,+y
312 +x+1/2,-y+1/2,-z
313 +y+1/2,+x+1/2,+z
314 +z+1/2,+y+1/2,+x
315 +x+1/2,+z+1/2,+y
316 +y+1/2,+x+1/2,-z
317 -z+1/2,+y+1/2,+x
318 +x+1/2,-z+1/2,+y
319 -z+1/2,+y+1/2,-x
320 -x+1/2,-z+1/2,+y
321 +x+1/2,-z+1/2,-y
322 -y+1/2,+x+1/2,-z
323 -z+1/2,-y+1/2,+x
324 +y+1/2,-x+1/2,-z
-301 -x+1/2,-y+1/2,-z
-302 -z+1/2,-x+1/2,-y
-303 -y+1/2,-z+1/2,-x
-304 -x+1/2,-y+1/2,+z
-305 +z+1/2,-x+1/2,-y
-306 -y+1/2,+z+1/2,-x
-307 +z+1/2,-x+1/2,+y
-308 +y+1/2,+z+1/2,-x
-309 -y+1/2,+z+1/2,+x
-310 +x+1/2,-y+1/2,+z
-311 +z+1/2,+x+1/2,-y
-312 -x+1/2,+y+1/2,+z
-313 -y+1/2,-x+1/2,-z
-314 -z+1/2,-y+1/2,-x
-315 -x+1/2,-z+1/2,-y
-316 -y+1/2,-x+1/2,+z
-317 +z+1/2,-y+1/2,-x
-318 -x+1/2,+z+1/2,-y
-319 +z+1/2,-y+1/2,+x
-320 +x+1/2,+z+1/2,-y
-321 -x+1/2,+z+1/2,+y
-322 +y+1/2,-x+1/2,+z
-323 +z+1/2,+y+1/2,-x
-324 -y+1/2,+x+1/2,+z
loop_
_atom_site_type_symbol
_atom_site_label
_atom_site_fract_x
_atom_site_fract_y
_atom_site_fract_z
_atom_site_occupancy
_atom_site_thermal_displace_type
_atom_site_U_iso_or_equiv
_atom_site_symmetry_multiplicity
O O 0.5 0.5 0.5 1.0 Uiso 0.001(4) 4
Ni Ni 0.0 0.0 0.0 1.0 Uiso 0.010(4) 4
loop_
_atom_type_symbol
_atom_type_number_in_cell
O 4.0
Ni 4.0
loop_
_geom_angle_atom_site_label_1
_geom_angle_atom_site_label_2
_geom_angle_atom_site_label_3
_geom_angle
_geom_angle_site_symmetry_1
_geom_angle_site_symmetry_3
_geom_angle_publ_flag
Ni O Ni 180.0 101_555 101_655 n
Ni O Ni 90.0 101_555 201_555 n
Ni O Ni 90.0 101_555 201_565 n
Ni O Ni 90.0 101_555 301_555 n
Ni O Ni 90.0 101_555 301_556 n
Ni O Ni 90.0 101_655 201_555 n
Ni O Ni 90.0 101_655 201_565 n
Ni O Ni 90.0 101_655 301_555 n
Ni O Ni 90.0 101_655 301_556 n
Ni O Ni 180.0 201_555 201_565 n
Ni O Ni 90.0 201_555 301_555 n
Ni O Ni 90.0 201_555 301_556 n
Ni O Ni 90.0 201_565 301_555 n
Ni O Ni 90.0 201_565 301_556 n
Ni O Ni 180.0 301_555 301_556 n
O Ni O 180.0 101_444 101_544 n
O Ni O 90.0 101_444 201_444 n
O Ni O 90.0 101_444 201_454 n
O Ni O 90.0 101_444 301_444 n
O Ni O 90.0 101_444 301_445 n
O Ni O 90.0 101_544 201_444 n
O Ni O 90.0 101_544 201_454 n
O Ni O 90.0 101_544 301_444 n
O Ni O 90.0 101_544 301_445 n
O Ni O 180.0 201_444 201_454 n
O Ni O 90.0 201_444 301_444 n
O Ni O 90.0 201_444 301_445 n
O Ni O 90.0 201_454 301_444 n
O Ni O 90.0 201_454 301_445 n
O Ni O 180.0 301_444 301_445 n
loop_
_geom_bond_atom_site_label_1
_geom_bond_atom_site_label_2
_geom_bond_distance
_geom_bond_site_symmetry_2
_geom_bond_publ_flag
O Ni 2.08930(11) 101_555 n
O Ni 2.08930(11) 101_655 n
O Ni 2.08930(11) 201_555 n
O Ni 2.08930(11) 201_565 n
O Ni 2.08930(11) 301_555 n
O Ni 2.08930(11) 301_556 n
Ni O 2.08930(11) 101_444 n
Ni O 2.08930(11) 101_544 n
Ni O 2.08930(11) 201_444 n
Ni O 2.08930(11) 201_454 n
Ni O 2.08930(11) 301_444 n
Ni O 2.08930(11) 301_445 n
loop_
_pd_block_diffractogram_id
2011-12-12T14:30|COREFINEMENT3_H_01|Andrew_Malingowski|x16c
2011-12-12T14:30|COREFINEMENT3_H_02|Andrew_Malingowski|POWGEN
2011-12-12T14:30|COREFINEMENT3_H_03|Andrew_Malingowski|POWGEN
2011-12-12T14:30|COREFINEMENT3_H_04|Andrew_Malingowski|POWGEN
