#------------------------------------------------------------------------------
#$Date: 2016-03-23 20:38:18 +0200 (Wed, 23 Mar 2016) $
#$Revision: 179416 $
#$URL: svn://www.crystallography.net/cod/cif/4/33/13/4331325.cif $
#------------------------------------------------------------------------------
#
# This file is available in the Crystallography Open Database (COD),
# http://www.crystallography.net/
#
# All data on this site have been placed in the public domain by the
# contributors.
#
data_4331325
loop_
_publ_author_name
'Martin M. Kimani'
'Lindsey Thompson'
'Whitney Snider'
'Colin D. McMillen'
'Joseph W. Kolis'
_publ_contact_author_address
;Chemistry Department Main Office
Clemson University Department of Chemistry
219 Hunter Laboratories
P.O. Box 340973
Clemson, SC 29634-0973
;
_publ_contact_author_email       kjoseph@clemson.edu
_publ_contact_author_fax         864-656-6613
_publ_contact_author_name        'Joseph Kolis'
_publ_contact_author_phone       '(864) 656-4739 / 502'
_publ_section_title
;
 Hydrothermal Synthesis and Spectroscopic Properties of a New Glaserite
 Material, K3RE(VO4)2 (RE = Sc, Y, Dy, Ho, Er, Yb, Lu, or Tm) with
 Potential Lasing and Optical Properties
;
_journal_name_full               'Inorganic Chemistry'
_journal_page_first              13271
_journal_page_last               13280
_journal_paper_doi               10.1021/ic301922e
_journal_volume                  51
_journal_year                    2012
_chemical_formula_moiety         'O8 Dy V2, 3(K)'
_chemical_formula_sum            'Dy K3 O8 V2'
_chemical_formula_weight         509.68
_chemical_name_systematic
; 
 ? 
;
_space_group_IT_number           164
_symmetry_cell_setting           trigonal
_symmetry_Int_Tables_number      164
_symmetry_space_group_name_Hall  '-P 3 2"'
_symmetry_space_group_name_H-M   'P -3 m 1'
_atom_sites_solution_primary     direct
_atom_sites_solution_secondary   difmap
_audit_creation_method           SHELXL-97
_cell_angle_alpha                90.00
_cell_angle_beta                 90.00
_cell_angle_gamma                120.00
_cell_formula_units_Z            1
_cell_length_a                   5.9016(8)
_cell_length_b                   5.9016(8)
_cell_length_c                   7.6047(15)
_cell_measurement_reflns_used    2117
_cell_measurement_temperature    293(2)
_cell_measurement_theta_max      29.27
_cell_measurement_theta_min      2.68
_cell_volume                     229.38(6)
_computing_cell_refinement       'CrystalClear (Rigaku/MSC,2006)'
_computing_data_collection       'CrystalClear (Rigaku/MSC,2006)'
_computing_data_reduction        'CrystalClear (Rigaku/MSC,2006)'
_computing_molecular_graphics    'SHELXTL 6.10 (Sheldrick,2008)'
_computing_publication_material  'SHELXTL 6.10 (Sheldrick,2008)'
_computing_structure_refinement  'SHELXTL 6.10 (Sheldrick,2008)'
_computing_structure_solution    'SHELXTL 6.10 (Sheldrick,2008)'
_diffrn_ambient_temperature      293(2)
_diffrn_detector_area_resol_mean 14.6306
_diffrn_measured_fraction_theta_full 0.987
_diffrn_measured_fraction_theta_max 0.879
_diffrn_measurement_device_type  'Rigaku, AFC8S diffractometer'
_diffrn_measurement_method       dtprofit.ref
_diffrn_radiation_monochromator  graphite
_diffrn_radiation_source         'fine-focus sealed tube'
_diffrn_radiation_type           MoK\a
_diffrn_radiation_wavelength     0.71073
_diffrn_reflns_av_R_equivalents  0.0946
_diffrn_reflns_av_sigmaI/netI    0.0376
_diffrn_reflns_limit_h_max       7
_diffrn_reflns_limit_h_min       -6
_diffrn_reflns_limit_k_max       7
_diffrn_reflns_limit_k_min       -7
_diffrn_reflns_limit_l_max       9
_diffrn_reflns_limit_l_min       -9
_diffrn_reflns_number            2117
_diffrn_reflns_theta_full        27.50
_diffrn_reflns_theta_max         29.27
_diffrn_reflns_theta_min         2.68
_diffrn_standards_decay_%        0
_diffrn_standards_interval_count 0
_diffrn_standards_interval_time  0
_diffrn_standards_number         0
_exptl_absorpt_coefficient_mu    11.427
_exptl_absorpt_correction_T_max  0.002
_exptl_absorpt_correction_T_min  0.001
_exptl_absorpt_correction_type   multi-scan
_exptl_absorpt_process_details   'REQAB, CrystalClear'
_exptl_crystal_colour            colorless
_exptl_crystal_density_diffrn    3.690
_exptl_crystal_description       hexagon
_exptl_crystal_F_000             233
_exptl_crystal_size_max          0.30
_exptl_crystal_size_mid          0.26
_exptl_crystal_size_min          0.22
_refine_diff_density_max         3.006
_refine_diff_density_min         -1.770
_refine_diff_density_rms         0.305
_refine_ls_extinction_coef       0.032(9)
_refine_ls_extinction_expression Fc^*^=kFc[1+0.001xFc^2^\l^3^/sin(2\q)]^-1/4^
_refine_ls_extinction_method     SHELXL
_refine_ls_goodness_of_fit_ref   1.189
_refine_ls_matrix_type           full
_refine_ls_number_parameters     21
_refine_ls_number_reflns         239
_refine_ls_number_restraints     0
_refine_ls_restrained_S_all      1.189
_refine_ls_R_factor_all          0.0403
_refine_ls_R_factor_gt           0.0403
_refine_ls_shift/su_max          0.000
_refine_ls_shift/su_mean         0.000
_refine_ls_structure_factor_coef Fsqd
_refine_ls_weighting_details
'calc w=1/[\s^2^(Fo^2^)+(0.0529P)^2^+3.2142P] where P=(Fo^2^+2Fc^2^)/3'
_refine_ls_weighting_scheme      calc
_refine_ls_wR_factor_gt          0.1059
_refine_ls_wR_factor_ref         0.1059
_reflns_number_gt                239
_reflns_number_total             239
_reflns_threshold_expression     >2sigma(I)
_cod_data_source_file            ic301922e_si_015_3.cif
_cod_data_source_block           K3DyV2O8
_cod_database_code               4331325
loop_
_symmetry_equiv_pos_as_xyz
'x, y, z'
'-y, x-y, z'
'-x+y, -x, z'
'y, x, -z'
'x-y, -y, -z'
'-x, -x+y, -z'
'-x, -y, -z'
'y, -x+y, -z'
'x-y, x, -z'
'-y, -x, z'
'-x+y, y, z'
'x, x-y, z'
loop_
_atom_site_label
_atom_site_type_symbol
_atom_site_fract_x
_atom_site_fract_y
_atom_site_fract_z
_atom_site_U_iso_or_equiv
_atom_site_adp_type
_atom_site_occupancy
_atom_site_symmetry_multiplicity
_atom_site_calc_flag
_atom_site_refinement_flags
Dy1 Dy 1.0000 0.0000 0.5000 0.0143(5) Uani 1 12 d S
V1 V 0.6667 0.3333 0.7480(4) 0.0183(7) Uani 1 6 d S
O2 O 0.6667 0.3333 0.960(2) 0.069(7) Uani 1 6 d S
O1 O 0.349(2) 0.1744(12) 0.676(2) 0.073(4) Uani 1 2 d S
K1 K 0.6667 0.3333 1.2931(6) 0.0306(10) Uani 1 6 d S
K2 K 0.0000 0.0000 1.0000 0.068(3) Uani 1 12 d S
loop_
_atom_site_aniso_label
_atom_site_aniso_U_11
_atom_site_aniso_U_22
_atom_site_aniso_U_33
_atom_site_aniso_U_23
_atom_site_aniso_U_13
_atom_site_aniso_U_12
Dy1 0.0138(6) 0.0138(6) 0.0152(7) 0.000 0.000 0.0069(3)
V1 0.0190(10) 0.0190(10) 0.0169(14) 0.000 0.000 0.0095(5)
O2 0.092(11) 0.092(11) 0.024(9) 0.000 0.000 0.046(6)
O1 0.048(7) 0.054(5) 0.116(9) -0.030(4) -0.061(7) 0.024(3)
K1 0.0331(15) 0.0331(15) 0.026(2) 0.000 0.000 0.0166(7)
K2 0.092(5) 0.092(5) 0.020(3) 0.000 0.000 0.046(2)
loop_
_atom_type_symbol
_atom_type_description
_atom_type_scat_dispersion_real
_atom_type_scat_dispersion_imag
_atom_type_scat_source
O O 0.0106 0.0060 'International Tables Vol C Tables 4.2.6.8 and 6.1.1.4'
K K 0.2009 0.2494 'International Tables Vol C Tables 4.2.6.8 and 6.1.1.4'
V V 0.3005 0.5294 'International Tables Vol C Tables 4.2.6.8 and 6.1.1.4'
Dy Dy -0.1892 4.4098 'International Tables Vol C Tables 4.2.6.8 and 6.1.1.4'
loop_
_geom_angle_atom_site_label_1
_geom_angle_atom_site_label_2
_geom_angle_atom_site_label_3
_geom_angle
_geom_angle_site_symmetry_1
_geom_angle_site_symmetry_3
O1 Dy1 O1 180.0(5) 7_656 1_655
O1 Dy1 O1 87.6(6) 7_656 8_656
O1 Dy1 O1 92.4(6) 1_655 8_656
O1 Dy1 O1 92.4(6) 7_656 2_655
O1 Dy1 O1 87.6(6) 1_655 2_655
O1 Dy1 O1 180.0(7) 8_656 2_655
O1 Dy1 O1 87.6(6) 7_656 9_656
O1 Dy1 O1 92.4(6) 1_655 9_656
O1 Dy1 O1 87.6(6) 8_656 9_656
O1 Dy1 O1 92.4(6) 2_655 9_656
O1 Dy1 O1 92.4(6) 7_656 3_655
O1 Dy1 O1 87.6(6) 1_655 3_655
O1 Dy1 O1 92.4(6) 8_656 3_655
O1 Dy1 O1 87.6(6) 2_655 3_655
O1 Dy1 O1 180.0(5) 9_656 3_655
O1 Dy1 K1 127.93(5) 7_656 7_757
O1 Dy1 K1 52.07(5) 1_655 7_757
O1 Dy1 K1 61.7(4) 8_656 7_757
O1 Dy1 K1 118.3(4) 2_655 7_757
O1 Dy1 K1 127.93(5) 9_656 7_757
O1 Dy1 K1 52.07(5) 3_655 7_757
O1 Dy1 K1 52.07(4) 7_656 1_554
O1 Dy1 K1 127.93(5) 1_655 1_554
O1 Dy1 K1 118.3(4) 8_656 1_554
O1 Dy1 K1 61.7(4) 2_655 1_554
O1 Dy1 K1 52.07(5) 9_656 1_554
O1 Dy1 K1 127.93(5) 3_655 1_554
K1 Dy1 K1 180.0 7_757 1_554
O1 Dy1 K1 127.93(5) 7_656 7_767
O1 Dy1 K1 52.07(5) 1_655 7_767
O1 Dy1 K1 127.93(5) 8_656 7_767
O1 Dy1 K1 52.07(5) 2_655 7_767
O1 Dy1 K1 61.7(4) 9_656 7_767
O1 Dy1 K1 118.3(4) 3_655 7_767
K1 Dy1 K1 103.67(7) 7_757 7_767
K1 Dy1 K1 76.33(7) 1_554 7_767
O1 Dy1 K1 52.07(5) 7_656 1_544
O1 Dy1 K1 127.93(4) 1_655 1_544
O1 Dy1 K1 52.07(5) 8_656 1_544
O1 Dy1 K1 127.93(5) 2_655 1_544
O1 Dy1 K1 118.3(4) 9_656 1_544
O1 Dy1 K1 61.7(4) 3_655 1_544
K1 Dy1 K1 76.33(7) 7_757 1_544
K1 Dy1 K1 103.67(7) 1_554 1_544
K1 Dy1 K1 180.0 7_767 1_544
O1 Dy1 K1 118.3(4) 7_656 1_654
O1 Dy1 K1 61.7(4) 1_655 1_654
O1 Dy1 K1 52.07(5) 8_656 1_654
O1 Dy1 K1 127.93(5) 2_655 1_654
O1 Dy1 K1 52.07(5) 9_656 1_654
O1 Dy1 K1 127.93(5) 3_655 1_654
K1 Dy1 K1 76.33(7) 7_757 1_654
K1 Dy1 K1 103.67(7) 1_554 1_654
K1 Dy1 K1 76.33(7) 7_767 1_654
K1 Dy1 K1 103.67(7) 1_544 1_654
O1 Dy1 K1 61.7(4) 7_656 7_657
O1 Dy1 K1 118.3(4) 1_655 7_657
O1 Dy1 K1 127.93(5) 8_656 7_657
O1 Dy1 K1 52.07(5) 2_655 7_657
O1 Dy1 K1 127.93(5) 9_656 7_657
O1 Dy1 K1 52.07(5) 3_655 7_657
K1 Dy1 K1 103.67(7) 7_757 7_657
K1 Dy1 K1 76.33(7) 1_554 7_657
K1 Dy1 K1 103.67(7) 7_767 7_657
K1 Dy1 K1 76.33(7) 1_544 7_657
K1 Dy1 K1 180.0 1_654 7_657
O2 V1 O1 108.6(6) . 2_655
O2 V1 O1 108.6(6) . .
O1 V1 O1 110.4(6) 2_655 .
O2 V1 O1 108.6(6) . 3_665
O1 V1 O1 110.4(6) 2_655 3_665
O1 V1 O1 110.4(6) . 3_665
O2 V1 K1 95.23(8) . 7_657
O1 V1 K1 59.93(6) 2_655 7_657
O1 V1 K1 59.93(6) . 7_657
O1 V1 K1 156.2(6) 3_665 7_657
O2 V1 K1 95.23(8) . 7_767
O1 V1 K1 59.93(6) 2_655 7_767
O1 V1 K1 156.2(6) . 7_767
O1 V1 K1 59.93(6) 3_665 7_767
K1 V1 K1 119.18(3) 7_657 7_767
O2 V1 K1 95.23(8) . 7_667
O1 V1 K1 156.2(6) 2_655 7_667
O1 V1 K1 59.93(6) . 7_667
O1 V1 K1 59.93(6) 3_665 7_667
K1 V1 K1 119.18(3) 7_657 7_667
K1 V1 K1 119.18(3) 7_767 7_667
O2 V1 K1 180.000(5) . 1_554
O1 V1 K1 71.4(6) 2_655 1_554
O1 V1 K1 71.4(6) . 1_554
O1 V1 K1 71.4(6) 3_665 1_554
K1 V1 K1 84.77(8) 7_657 1_554
K1 V1 K1 84.77(8) 7_767 1_554
K1 V1 K1 84.77(8) 7_667 1_554
O2 V1 K2 60.64(4) . 1_655
O1 V1 K2 47.9(6) 2_655 1_655
O1 V1 K2 124.7(2) . 1_655
O1 V1 K2 124.7(2) 3_665 1_655
K1 V1 K2 67.09(4) 7_657 1_655
K1 V1 K2 67.09(4) 7_767 1_655
K1 V1 K2 155.87(11) 7_667 1_655
K1 V1 K2 119.36(4) 1_554 1_655
O2 V1 K2 60.64(4) . 1_665
O1 V1 K2 124.7(2) 2_655 1_665
O1 V1 K2 124.7(2) . 1_665
O1 V1 K2 47.9(6) 3_665 1_665
K1 V1 K2 155.87(11) 7_657 1_665
K1 V1 K2 67.09(4) 7_767 1_665
K1 V1 K2 67.09(4) 7_667 1_665
K1 V1 K2 119.36(4) 1_554 1_665
K2 V1 K2 98.01(5) 1_655 1_665
O2 V1 K2 60.64(4) . .
O1 V1 K2 124.7(2) 2_655 .
O1 V1 K2 47.9(6) . .
O1 V1 K2 124.7(2) 3_665 .
K1 V1 K2 67.09(4) 7_657 .
K1 V1 K2 155.87(11) 7_767 .
K1 V1 K2 67.09(4) 7_667 .
K1 V1 K2 119.36(4) 1_554 .
K2 V1 K2 98.01(5) 1_655 .
K2 V1 K2 98.01(5) 1_665 .
V1 O2 K1 180.000(2) . .
V1 O2 K2 95.1(3) . 1_655
K1 O2 K2 84.9(3) . 1_655
V1 O2 K2 95.1(3) . 1_665
K1 O2 K2 84.9(3) . 1_665
K2 O2 K2 119.21(9) 1_655 1_665
V1 O2 K2 95.1(3) . .
K1 O2 K2 84.9(3) . .
K2 O2 K2 119.21(9) 1_655 .
K2 O2 K2 119.21(9) 1_665 .
V1 O1 Dy1 161.6(10) . 1_455
V1 O1 K1 90.02(19) . 7_657
Dy1 O1 K1 91.5(2) 1_455 7_657
V1 O1 K1 90.02(19) . 7_667
Dy1 O1 K1 91.5(2) 1_455 7_667
K1 O1 K1 170.5(7) 7_657 7_667
V1 O1 K2 107.4(7) . .
Dy1 O1 K2 91.0(5) 1_455 .
K1 O1 K2 85.4(3) 7_657 .
K1 O1 K2 85.4(3) 7_667 .
V1 O1 K1 79.4(6) . 1_554
Dy1 O1 K1 82.2(5) 1_455 1_554
K1 O1 K1 94.7(3) 7_657 1_554
K1 O1 K1 94.7(3) 7_667 1_554
K2 O1 K1 173.2(4) . 1_554
O2 K1 O1 94.5(3) . 9_657
O2 K1 O1 94.5(3) . 7_657
O1 K1 O1 62.9(4) 9_657 7_657
O2 K1 O1 94.5(3) . 8_667
O1 K1 O1 56.7(5) 9_657 8_667
O1 K1 O1 119.39(9) 7_657 8_667
O2 K1 O1 94.5(3) . 8_557
O1 K1 O1 119.39(9) 9_657 8_557
O1 K1 O1 56.7(5) 7_657 8_557
O1 K1 O1 170.5(7) 8_667 8_557
O2 K1 O1 94.5(3) . 7_667
O1 K1 O1 119.39(9) 9_657 7_667
O1 K1 O1 170.5(7) 7_657 7_667
O1 K1 O1 62.9(5) 8_667 7_667
O1 K1 O1 119.39(9) 8_557 7_667
O2 K1 O1 94.5(3) . 9_557
O1 K1 O1 170.5(7) 9_657 9_557
O1 K1 O1 119.39(9) 7_657 9_557
O1 K1 O1 119.39(9) 8_667 9_557
O1 K1 O1 62.9(5) 8_557 9_557
O1 K1 O1 56.7(5) 7_667 9_557
O2 K1 O1 150.86(17) . 2_656
O1 K1 O1 61.2(4) 9_657 2_656
O1 K1 O1 61.2(4) 7_657 2_656
O1 K1 O1 85.3(3) 8_667 2_656
O1 K1 O1 85.3(3) 8_557 2_656
O1 K1 O1 111.0(3) 7_667 2_656
O1 K1 O1 111.0(3) 9_557 2_656
O2 K1 O1 150.86(18) . 3_666
O1 K1 O1 85.3(3) 9_657 3_666
O1 K1 O1 111.0(3) 7_657 3_666
O1 K1 O1 61.2(4) 8_667 3_666
O1 K1 O1 111.0(3) 8_557 3_666
O1 K1 O1 61.2(4) 7_667 3_666
O1 K1 O1 85.3(3) 9_557 3_666
O1 K1 O1 49.9(3) 2_656 3_666
O2 K1 O1 150.86(18) . 1_556
O1 K1 O1 111.0(3) 9_657 1_556
O1 K1 O1 85.3(3) 7_657 1_556
O1 K1 O1 111.0(3) 8_667 1_556
O1 K1 O1 61.2(4) 8_557 1_556
O1 K1 O1 85.3(3) 7_667 1_556
O1 K1 O1 61.2(4) 9_557 1_556
O1 K1 O1 49.9(3) 2_656 1_556
O1 K1 O1 49.9(3) 3_666 1_556
O2 K1 V1 84.77(8) . 7_657
O1 K1 V1 91.9(2) 9_657 7_657
O1 K1 V1 30.0(2) 7_657 7_657
O1 K1 V1 148.6(2) 8_667 7_657
O1 K1 V1 30.0(2) 8_557 7_657
O1 K1 V1 148.6(2) 7_667 7_657
O1 K1 V1 91.9(2) 9_557 7_657
O1 K1 V1 80.63(10) 2_656 7_657
O1 K1 V1 124.4(2) 3_666 7_657
O1 K1 V1 80.63(10) 1_556 7_657
O2 K1 V1 84.77(8) . 7_767
O1 K1 V1 30.0(2) 9_657 7_767
O1 K1 V1 91.9(2) 7_657 7_767
O1 K1 V1 30.0(2) 8_667 7_767
O1 K1 V1 148.6(2) 8_557 7_767
O1 K1 V1 91.9(2) 7_667 7_767
O1 K1 V1 148.6(2) 9_557 7_767
O1 K1 V1 80.63(10) 2_656 7_767
O1 K1 V1 80.63(10) 3_666 7_767
O1 K1 V1 124.4(2) 1_556 7_767
V1 K1 V1 119.18(3) 7_657 7_767
O1 K2 O1 180.000(2) 3 9_557
O1 K2 O1 61.1(3) 3 2
O1 K2 O1 118.9(3) 9_557 2
O1 K2 O1 118.9(3) 3 8_557
O1 K2 O1 61.1(3) 9_557 8_557
O1 K2 O1 180.0(4) 2 8_557
O1 K2 O1 61.1(3) 3 .
O1 K2 O1 118.9(3) 9_557 .
O1 K2 O1 61.1(3) 2 .
O1 K2 O1 118.9(3) 8_557 .
O1 K2 O1 118.9(3) 3 7_557
O1 K2 O1 61.1(3) 9_557 7_557
O1 K2 O1 118.9(3) 2 7_557
O1 K2 O1 61.1(3) 8_557 7_557
O1 K2 O1 180.000(2) . 7_557
O1 K2 O2 77.3(3) 3 7_657
O1 K2 O2 102.7(3) 9_557 7_657
O1 K2 O2 131.1(3) 2 7_657
O1 K2 O2 48.9(3) 8_557 7_657
O1 K2 O2 77.3(3) . 7_657
O1 K2 O2 102.7(3) 7_557 7_657
O1 K2 O2 102.7(3) 3 1_455
O1 K2 O2 77.3(3) 9_557 1_455
O1 K2 O2 48.9(3) 2 1_455
O1 K2 O2 131.1(3) 8_557 1_455
O1 K2 O2 102.7(3) . 1_455
O1 K2 O2 77.3(3) 7_557 1_455
O2 K2 O2 180.0(6) 7_657 1_455
O1 K2 O2 131.1(3) 3 7_667
O1 K2 O2 48.9(3) 9_557 7_667
O1 K2 O2 77.3(3) 2 7_667
O1 K2 O2 102.7(3) 8_557 7_667
O1 K2 O2 77.3(3) . 7_667
O1 K2 O2 102.7(3) 7_557 7_667
O2 K2 O2 119.21(9) 7_657 7_667
O2 K2 O2 60.79(9) 1_455 7_667
O1 K2 O2 48.9(3) 3 1_445
O1 K2 O2 131.1(3) 9_557 1_445
O1 K2 O2 102.7(3) 2 1_445
O1 K2 O2 77.3(3) 8_557 1_445
O1 K2 O2 102.7(3) . 1_445
O1 K2 O2 77.3(3) 7_557 1_445
O2 K2 O2 60.79(9) 7_657 1_445
O2 K2 O2 119.21(9) 1_455 1_445
O2 K2 O2 180.0 7_667 1_445
O1 K2 O2 102.7(3) 3 .
O1 K2 O2 77.3(3) 9_557 .
O1 K2 O2 102.7(3) 2 .
O1 K2 O2 77.3(3) 8_557 .
O1 K2 O2 48.9(3) . .
O1 K2 O2 131.1(3) 7_557 .
O2 K2 O2 60.79(9) 7_657 .
O2 K2 O2 119.21(9) 1_455 .
O2 K2 O2 60.79(9) 7_667 .
O2 K2 O2 119.21(9) 1_445 .
O1 K2 O2 77.3(3) 3 7_557
O1 K2 O2 102.7(3) 9_557 7_557
O1 K2 O2 77.3(3) 2 7_557
O1 K2 O2 102.7(3) 8_557 7_557
O1 K2 O2 131.1(3) . 7_557
O1 K2 O2 48.9(3) 7_557 7_557
O2 K2 O2 119.21(9) 7_657 7_557
O2 K2 O2 60.79(9) 1_455 7_557
O2 K2 O2 119.21(9) 7_667 7_557
O2 K2 O2 60.79(9) 1_445 7_557
O2 K2 O2 180.0 . 7_557
loop_
_geom_bond_atom_site_label_1
_geom_bond_atom_site_label_2
_geom_bond_distance
_geom_bond_site_symmetry_2
Dy1 O1 2.231(10) 7_656
Dy1 O1 2.231(10) 1_655
Dy1 O1 2.231(10) 8_656
Dy1 O1 2.231(10) 2_655
Dy1 O1 2.231(10) 9_656
Dy1 O1 2.231(10) 3_655
V1 O2 1.610(17) .
V1 O1 1.713(10) 2_655
V1 O1 1.713(10) .
V1 O1 1.713(10) 3_665
V1 K1 3.4216(7) 7_657
V1 K1 3.4216(7) 7_767
V1 K1 3.4216(7) 7_667
V1 K1 3.459(6) 1_554
O2 K1 2.536(18) .
O2 K2 3.4211(16) 1_655
O2 K2 3.4211(16) 1_665
O2 K2 3.4211(16) .
O1 Dy1 2.231(10) 1_455
O1 K2 3.040(17) .
O1 K1 3.336(18) 1_554
K1 O1 3.336(18) 2_656
K1 O1 3.336(18) 3_666
K1 O1 3.336(18) 1_556
K1 V1 3.4216(7) 7_657
K1 V1 3.4216(7) 7_767
K2 O1 3.040(17) 3
K2 O1 3.040(17) 9_557
K2 O1 3.040(17) 2
K2 O1 3.040(17) 8_557
K2 O1 3.040(17) 7_557
K2 O2 3.4211(16) 7_657
K2 O2 3.4211(16) 1_455
K2 O2 3.4211(17) 7_667
K2 O2 3.4211(17) 1_445
K2 O2 3.4211(17) 7_557
