#------------------------------------------------------------------------------
#$Date: 2016-03-23 20:38:18 +0200 (Wed, 23 Mar 2016) $
#$Revision: 179416 $
#$URL: svn://www.crystallography.net/cod/cif/4/33/13/4331327.cif $
#------------------------------------------------------------------------------
#
# This file is available in the Crystallography Open Database (COD),
# http://www.crystallography.net/
#
# All data on this site have been placed in the public domain by the
# contributors.
#
data_4331327
loop_
_publ_author_name
'Martin M. Kimani'
'Lindsey Thompson'
'Whitney Snider'
'Colin D. McMillen'
'Joseph W. Kolis'
_publ_contact_author_address
;Chemistry Department Main Office
Clemson University Department of Chemistry
219 Hunter Laboratories
P.O. Box 340973
Clemson, SC 29634-0973
;
_publ_contact_author_email       kjoseph@clemson.edu
_publ_contact_author_fax         864-656-6613
_publ_contact_author_name        'Joseph Kolis'
_publ_contact_author_phone       '(864) 656-4739 / 502'
_publ_section_title
;
 Hydrothermal Synthesis and Spectroscopic Properties of a New Glaserite
 Material, K3RE(VO4)2 (RE = Sc, Y, Dy, Ho, Er, Yb, Lu, or Tm) with
 Potential Lasing and Optical Properties
;
_journal_name_full               'Inorganic Chemistry'
_journal_page_first              13271
_journal_page_last               13280
_journal_paper_doi               10.1021/ic301922e
_journal_volume                  51
_journal_year                    2012
_chemical_formula_moiety         'Er K3 O8 V2'
_chemical_formula_sum            'Er K3 O8 V2'
_chemical_formula_weight         514.44
_chemical_name_systematic
; 
 ? 
;
_space_group_IT_number           164
_symmetry_cell_setting           trigonal
_symmetry_Int_Tables_number      164
_symmetry_space_group_name_Hall  '-P 3 2"'
_symmetry_space_group_name_H-M   'P -3 m 1'
_atom_sites_solution_primary     direct
_atom_sites_solution_secondary   difmap
_audit_creation_method           SHELXL-97
_cell_angle_alpha                90.00
_cell_angle_beta                 90.00
_cell_angle_gamma                120.00
_cell_formula_units_Z            1
_cell_length_a                   5.8798(8)
_cell_length_b                   5.8798(8)
_cell_length_c                   7.6035(15)
_cell_measurement_reflns_used    2093
_cell_measurement_temperature    293(2)
_cell_measurement_theta_max      27.64
_cell_measurement_theta_min      2.68
_cell_volume                     227.65(6)
_computing_cell_refinement       'CrystalClear (Rigaku/MSC,2006)'
_computing_data_collection       'CrystalClear (Rigaku/MSC,2006)'
_computing_data_reduction        'CrystalClear (Rigaku/MSC,2006)'
_computing_molecular_graphics    'SHELXTL 6.10 (Sheldrick,2008)'
_computing_publication_material  'SHELXTL 6.10 (Sheldrick,2008)'
_computing_structure_refinement  'SHELXTL 6.10 (Sheldrick,2008)'
_computing_structure_solution    'SHELXTL 6.10 (Sheldrick,2008)'
_diffrn_ambient_temperature      293(2)
_diffrn_detector_area_resol_mean 14.6306
_diffrn_measured_fraction_theta_full 1.000
_diffrn_measured_fraction_theta_max 0.979
_diffrn_measurement_device_type  'Rigaku, AFC8S diffractometer'
_diffrn_measurement_method       dtprofit.ref
_diffrn_radiation_monochromator  graphite
_diffrn_radiation_source         'fine-focus sealed tube'
_diffrn_radiation_type           MoK\a
_diffrn_radiation_wavelength     0.71073
_diffrn_reflns_av_R_equivalents  0.0451
_diffrn_reflns_av_sigmaI/netI    0.0187
_diffrn_reflns_limit_h_max       7
_diffrn_reflns_limit_h_min       -7
_diffrn_reflns_limit_k_max       7
_diffrn_reflns_limit_k_min       -7
_diffrn_reflns_limit_l_max       9
_diffrn_reflns_limit_l_min       -9
_diffrn_reflns_number            2093
_diffrn_reflns_theta_full        25.00
_diffrn_reflns_theta_max         27.64
_diffrn_reflns_theta_min         2.68
_diffrn_standards_decay_%        0
_diffrn_standards_interval_count 0
_diffrn_standards_interval_time  0
_diffrn_standards_number         0
_exptl_absorpt_coefficient_mu    12.524
_exptl_absorpt_correction_T_max  0.002
_exptl_absorpt_correction_T_min  0.001
_exptl_absorpt_correction_type   multi-scan
_exptl_absorpt_process_details   'REQAB, CrystalClear'
_exptl_crystal_colour            Pink
_exptl_crystal_density_diffrn    3.752
_exptl_crystal_description       hexagon
_exptl_crystal_F_000             235
_exptl_crystal_size_max          0.28
_exptl_crystal_size_mid          0.25
_exptl_crystal_size_min          0.21
_refine_diff_density_max         0.961
_refine_diff_density_min         -1.589
_refine_diff_density_rms         0.227
_refine_ls_extinction_method     none
_refine_ls_goodness_of_fit_ref   1.156
_refine_ls_matrix_type           full
_refine_ls_number_parameters     20
_refine_ls_number_reflns         231
_refine_ls_number_restraints     0
_refine_ls_restrained_S_all      1.156
_refine_ls_R_factor_all          0.0228
_refine_ls_R_factor_gt           0.0228
_refine_ls_shift/su_max          0.000
_refine_ls_shift/su_mean         0.000
_refine_ls_structure_factor_coef Fsqd
_refine_ls_weighting_details
'calc w=1/[\s^2^(Fo^2^)+(0.0112P)^2^+2.1755P] where P=(Fo^2^+2Fc^2^)/3'
_refine_ls_weighting_scheme      calc
_refine_ls_wR_factor_gt          0.0510
_refine_ls_wR_factor_ref         0.0510
_reflns_number_gt                229
_reflns_number_total             231
_reflns_threshold_expression     >2sigma(I)
_cod_data_source_file            ic301922e_si_015_5.cif
_cod_data_source_block           K3ErV2O8
_cod_database_code               4331327
loop_
_symmetry_equiv_pos_as_xyz
'x, y, z'
'-y, x-y, z'
'-x+y, -x, z'
'y, x, -z'
'x-y, -y, -z'
'-x, -x+y, -z'
'-x, -y, -z'
'y, -x+y, -z'
'x-y, x, -z'
'-y, -x, z'
'-x+y, y, z'
'x, x-y, z'
loop_
_atom_site_label
_atom_site_type_symbol
_atom_site_fract_x
_atom_site_fract_y
_atom_site_fract_z
_atom_site_U_iso_or_equiv
_atom_site_adp_type
_atom_site_occupancy
_atom_site_symmetry_multiplicity
_atom_site_calc_flag
_atom_site_refinement_flags
Er1 Er 1.0000 0.0000 0.5000 0.0096(2) Uani 1 12 d S
V1 V 0.6667 0.3333 0.7479(2) 0.0115(4) Uani 1 6 d S
O2 O 0.6667 0.3333 0.9581(12) 0.064(4) Uani 1 6 d S
O1 O 0.3506(13) 0.1753(7) 0.6723(10) 0.065(2) Uani 1 2 d S
K1 K 0.6667 0.3333 1.2941(3) 0.0235(5) Uani 1 6 d S
K2 K 0.0000 0.0000 1.0000 0.0634(17) Uani 1 12 d S
loop_
_atom_site_aniso_label
_atom_site_aniso_U_11
_atom_site_aniso_U_22
_atom_site_aniso_U_33
_atom_site_aniso_U_23
_atom_site_aniso_U_13
_atom_site_aniso_U_12
Er1 0.0086(2) 0.0086(2) 0.0117(3) 0.000 0.000 0.00429(12)
V1 0.0132(5) 0.0132(5) 0.0083(7) 0.000 0.000 0.0066(3)
O2 0.089(6) 0.089(6) 0.014(4) 0.000 0.000 0.044(3)
O1 0.049(4) 0.047(3) 0.098(5) -0.031(2) -0.062(4) 0.024(2)
K1 0.0259(8) 0.0259(8) 0.0186(11) 0.000 0.000 0.0130(4)
K2 0.087(3) 0.087(3) 0.0152(18) 0.000 0.000 0.0437(14)
loop_
_atom_type_symbol
_atom_type_description
_atom_type_scat_dispersion_real
_atom_type_scat_dispersion_imag
_atom_type_scat_source
O O 0.0106 0.0060 'International Tables Vol C Tables 4.2.6.8 and 6.1.1.4'
K K 0.2009 0.2494 'International Tables Vol C Tables 4.2.6.8 and 6.1.1.4'
V V 0.3005 0.5294 'International Tables Vol C Tables 4.2.6.8 and 6.1.1.4'
Er Er -0.2586 4.9576 'International Tables Vol C Tables 4.2.6.8 and 6.1.1.4'
loop_
_geom_angle_atom_site_label_1
_geom_angle_atom_site_label_2
_geom_angle_atom_site_label_3
_geom_angle
_geom_angle_site_symmetry_1
_geom_angle_site_symmetry_3
O1 Er1 O1 180.000(1) 7_656 1_655
O1 Er1 O1 88.6(3) 7_656 9_656
O1 Er1 O1 91.4(3) 1_655 9_656
O1 Er1 O1 91.4(3) 7_656 2_655
O1 Er1 O1 88.6(3) 1_655 2_655
O1 Er1 O1 91.4(3) 9_656 2_655
O1 Er1 O1 88.6(3) 7_656 8_656
O1 Er1 O1 91.4(3) 1_655 8_656
O1 Er1 O1 88.6(3) 9_656 8_656
O1 Er1 O1 180.0(3) 2_655 8_656
O1 Er1 O1 91.4(3) 7_656 3_655
O1 Er1 O1 88.6(3) 1_655 3_655
O1 Er1 O1 180.0(3) 9_656 3_655
O1 Er1 O1 88.6(3) 2_655 3_655
O1 Er1 O1 91.4(3) 8_656 3_655
O1 Er1 K1 127.87(2) 7_656 7_757
O1 Er1 K1 52.13(2) 1_655 7_757
O1 Er1 K1 127.87(2) 9_656 7_757
O1 Er1 K1 119.0(2) 2_655 7_757
O1 Er1 K1 61.0(2) 8_656 7_757
O1 Er1 K1 52.13(2) 3_655 7_757
O1 Er1 K1 52.13(2) 7_656 1_554
O1 Er1 K1 127.87(2) 1_655 1_554
O1 Er1 K1 52.13(2) 9_656 1_554
O1 Er1 K1 61.0(2) 2_655 1_554
O1 Er1 K1 119.0(2) 8_656 1_554
O1 Er1 K1 127.87(2) 3_655 1_554
K1 Er1 K1 180.0 7_757 1_554
O1 Er1 K1 127.87(2) 7_656 7_767
O1 Er1 K1 52.13(2) 1_655 7_767
O1 Er1 K1 61.0(2) 9_656 7_767
O1 Er1 K1 52.13(2) 2_655 7_767
O1 Er1 K1 127.87(2) 8_656 7_767
O1 Er1 K1 119.0(2) 3_655 7_767
K1 Er1 K1 103.70(4) 7_757 7_767
K1 Er1 K1 76.30(4) 1_554 7_767
O1 Er1 K1 52.13(2) 7_656 1_544
O1 Er1 K1 127.87(2) 1_655 1_544
O1 Er1 K1 119.0(2) 9_656 1_544
O1 Er1 K1 127.87(2) 2_655 1_544
O1 Er1 K1 52.13(2) 8_656 1_544
O1 Er1 K1 61.0(2) 3_655 1_544
K1 Er1 K1 76.30(4) 7_757 1_544
K1 Er1 K1 103.70(4) 1_554 1_544
K1 Er1 K1 180.0 7_767 1_544
O1 Er1 K1 119.0(2) 7_656 1_654
O1 Er1 K1 61.0(2) 1_655 1_654
O1 Er1 K1 52.13(2) 9_656 1_654
O1 Er1 K1 127.87(2) 2_655 1_654
O1 Er1 K1 52.13(2) 8_656 1_654
O1 Er1 K1 127.87(2) 3_655 1_654
K1 Er1 K1 76.30(4) 7_757 1_654
K1 Er1 K1 103.70(4) 1_554 1_654
K1 Er1 K1 76.30(4) 7_767 1_654
K1 Er1 K1 103.70(4) 1_544 1_654
O1 Er1 K1 61.0(2) 7_656 7_657
O1 Er1 K1 119.0(2) 1_655 7_657
O1 Er1 K1 127.87(2) 9_656 7_657
O1 Er1 K1 52.13(2) 2_655 7_657
O1 Er1 K1 127.87(2) 8_656 7_657
O1 Er1 K1 52.13(2) 3_655 7_657
K1 Er1 K1 103.70(4) 7_757 7_657
K1 Er1 K1 76.30(4) 1_554 7_657
K1 Er1 K1 103.70(4) 7_767 7_657
K1 Er1 K1 76.30(4) 1_544 7_657
K1 Er1 K1 180.0 1_654 7_657
O2 V1 O1 109.7(3) . 2_655
O2 V1 O1 109.7(3) . .
O1 V1 O1 109.3(3) 2_655 .
O2 V1 O1 109.7(3) . 3_665
O1 V1 O1 109.3(3) 2_655 3_665
O1 V1 O1 109.3(3) . 3_665
O2 V1 K1 95.38(5) . 7_657
O1 V1 K1 59.98(3) 2_655 7_657
O1 V1 K1 59.98(3) . 7_657
O1 V1 K1 155.0(3) 3_665 7_657
O2 V1 K1 95.38(5) . 7_767
O1 V1 K1 59.98(3) 2_655 7_767
O1 V1 K1 155.0(3) . 7_767
O1 V1 K1 59.98(3) 3_665 7_767
K1 V1 K1 119.132(15) 7_657 7_767
O2 V1 K1 95.38(5) . 7_667
O1 V1 K1 155.0(3) 2_655 7_667
O1 V1 K1 59.98(3) . 7_667
O1 V1 K1 59.98(3) 3_665 7_667
K1 V1 K1 119.132(15) 7_657 7_667
K1 V1 K1 119.132(15) 7_767 7_667
O2 V1 K1 180.000(2) . 1_554
O1 V1 K1 70.3(3) 2_655 1_554
O1 V1 K1 70.3(3) . 1_554
O1 V1 K1 70.3(3) 3_665 1_554
K1 V1 K1 84.62(5) 7_657 1_554
K1 V1 K1 84.62(5) 7_767 1_554
K1 V1 K1 84.62(5) 7_667 1_554
O2 V1 K2 60.55(2) . 1_655
O1 V1 K2 49.1(3) 2_655 1_655
O1 V1 K2 125.13(11) . 1_655
O1 V1 K2 125.13(11) 3_665 1_655
K1 V1 K2 67.21(2) 7_657 1_655
K1 V1 K2 67.21(2) 7_767 1_655
K1 V1 K2 155.93(6) 7_667 1_655
K1 V1 K2 119.45(2) 1_554 1_655
O2 V1 K2 60.55(2) . 1_665
O1 V1 K2 125.13(11) 2_655 1_665
O1 V1 K2 125.13(11) . 1_665
O1 V1 K2 49.1(3) 3_665 1_665
K1 V1 K2 155.93(6) 7_657 1_665
K1 V1 K2 67.21(2) 7_767 1_665
K1 V1 K2 67.21(2) 7_667 1_665
K1 V1 K2 119.45(2) 1_554 1_665
K2 V1 K2 97.90(3) 1_655 1_665
O2 V1 K2 60.55(2) . .
O1 V1 K2 125.13(11) 2_655 .
O1 V1 K2 49.1(3) . .
O1 V1 K2 125.13(11) 3_665 .
K1 V1 K2 67.21(2) 7_657 .
K1 V1 K2 155.93(6) 7_767 .
K1 V1 K2 67.21(2) 7_667 .
K1 V1 K2 119.45(2) 1_554 .
K2 V1 K2 97.90(3) 1_655 .
K2 V1 K2 97.90(3) 1_665 .
V1 O2 K1 180.000(1) . .
V1 O2 K2 95.36(15) . 1_655
K1 O2 K2 84.64(15) . 1_655
V1 O2 K2 95.36(15) . 1_665
K1 O2 K2 84.64(15) . 1_665
K2 O2 K2 119.14(5) 1_655 1_665
V1 O2 K2 95.36(15) . .
K1 O2 K2 84.64(15) . .
K2 O2 K2 119.14(5) 1_655 .
K2 O2 K2 119.14(5) 1_665 .
V1 O1 Er1 163.4(5) . 1_455
V1 O1 K1 89.93(11) . 7_667
Er1 O1 K1 91.56(11) 1_455 7_667
V1 O1 K1 89.93(11) . 7_657
Er1 O1 K1 91.56(11) 1_455 7_657
K1 O1 K1 169.5(3) 7_667 7_657
V1 O1 K2 105.9(3) . .
Er1 O1 K2 90.7(2) 1_455 .
K1 O1 K2 84.97(17) 7_667 .
K1 O1 K2 84.97(17) 7_657 .
V1 O1 K1 80.4(3) . 1_554
Er1 O1 K1 83.0(2) 1_455 1_554
K1 O1 K1 95.17(17) 7_667 1_554
K1 O1 K1 95.17(17) 7_657 1_554
K2 O1 K1 173.62(19) . 1_554
O2 K1 O1 94.97(15) . 9_657
O2 K1 O1 94.97(16) . 8_557
O1 K1 O1 119.26(5) 9_657 8_557
O2 K1 O1 94.97(15) . 7_667
O1 K1 O1 119.26(5) 9_657 7_667
O1 K1 O1 119.26(5) 8_557 7_667
O2 K1 O1 94.97(15) . 7_657
O1 K1 O1 63.2(3) 9_657 7_657
O1 K1 O1 56.3(3) 8_557 7_657
O1 K1 O1 169.5(3) 7_667 7_657
O2 K1 O1 94.97(16) . 8_667
O1 K1 O1 56.3(3) 9_657 8_667
O1 K1 O1 169.5(3) 8_557 8_667
O1 K1 O1 63.2(3) 7_667 8_667
O1 K1 O1 119.26(5) 7_657 8_667
O2 K1 O1 94.97(15) . 9_557
O1 K1 O1 169.5(3) 9_657 9_557
O1 K1 O1 63.2(3) 8_557 9_557
O1 K1 O1 56.4(3) 7_667 9_557
O1 K1 O1 119.26(5) 7_657 9_557
O1 K1 O1 119.26(5) 8_667 9_557
O2 K1 O1 150.76(10) . 2_656
O1 K1 O1 60.69(18) 9_657 2_656
O1 K1 O1 84.83(17) 8_557 2_656
O1 K1 O1 110.67(14) 7_667 2_656
O1 K1 O1 60.69(18) 7_657 2_656
O1 K1 O1 84.83(17) 8_667 2_656
O1 K1 O1 110.67(14) 9_557 2_656
O2 K1 O1 150.76(10) . 3_666
O1 K1 O1 84.83(17) 9_657 3_666
O1 K1 O1 110.67(14) 8_557 3_666
O1 K1 O1 60.69(18) 7_667 3_666
O1 K1 O1 110.67(14) 7_657 3_666
O1 K1 O1 60.69(18) 8_667 3_666
O1 K1 O1 84.83(17) 9_557 3_666
O1 K1 O1 50.05(16) 2_656 3_666
O2 K1 O1 150.76(10) . 1_556
O1 K1 O1 110.67(14) 9_657 1_556
O1 K1 O1 60.69(18) 8_557 1_556
O1 K1 O1 84.83(17) 7_667 1_556
O1 K1 O1 84.83(17) 7_657 1_556
O1 K1 O1 110.67(14) 8_667 1_556
O1 K1 O1 60.69(18) 9_557 1_556
O1 K1 O1 50.05(16) 2_656 1_556
O1 K1 O1 50.05(16) 3_666 1_556
O2 K1 V1 84.62(5) . 7_657
O1 K1 V1 92.16(14) 9_657 7_657
O1 K1 V1 30.09(11) 8_557 7_657
O1 K1 V1 148.42(13) 7_667 7_657
O1 K1 V1 30.09(11) 7_657 7_657
O1 K1 V1 148.42(13) 8_667 7_657
O1 K1 V1 92.16(14) 9_557 7_657
O1 K1 V1 80.71(6) 2_656 7_657
O1 K1 V1 124.62(11) 3_666 7_657
O1 K1 V1 80.71(6) 1_556 7_657
O2 K1 V1 84.62(5) . 7_767
O1 K1 V1 30.09(11) 9_657 7_767
O1 K1 V1 148.42(13) 8_557 7_767
O1 K1 V1 92.16(14) 7_667 7_767
O1 K1 V1 92.16(14) 7_657 7_767
O1 K1 V1 30.09(11) 8_667 7_767
O1 K1 V1 148.42(13) 9_557 7_767
O1 K1 V1 80.71(6) 2_656 7_767
O1 K1 V1 80.71(6) 3_666 7_767
O1 K1 V1 124.62(11) 1_556 7_767
V1 K1 V1 119.132(15) 7_657 7_767
O1 K2 O1 180.000(1) 3 9_557
O1 K2 O1 60.57(16) 3 2
O1 K2 O1 119.43(16) 9_557 2
O1 K2 O1 119.43(16) 3 8_557
O1 K2 O1 60.57(16) 9_557 8_557
O1 K2 O1 180.00(16) 2 8_557
O1 K2 O1 60.57(16) 3 .
O1 K2 O1 119.43(17) 9_557 .
O1 K2 O1 60.57(16) 2 .
O1 K2 O1 119.43(16) 8_557 .
O1 K2 O1 119.43(17) 3 7_557
O1 K2 O1 60.57(16) 9_557 7_557
O1 K2 O1 119.43(16) 2 7_557
O1 K2 O1 60.57(16) 8_557 7_557
O1 K2 O1 180.000(1) . 7_557
O1 K2 O2 77.64(14) 3 7_657
O1 K2 O2 102.36(14) 9_557 7_657
O1 K2 O2 130.97(18) 2 7_657
O1 K2 O2 49.03(18) 8_557 7_657
O1 K2 O2 77.64(14) . 7_657
O1 K2 O2 102.36(14) 7_557 7_657
O1 K2 O2 102.36(14) 3 1_455
O1 K2 O2 77.64(14) 9_557 1_455
O1 K2 O2 49.03(18) 2 1_455
O1 K2 O2 130.97(18) 8_557 1_455
O1 K2 O2 102.36(14) . 1_455
O1 K2 O2 77.64(14) 7_557 1_455
O2 K2 O2 180.0 7_657 1_455
O1 K2 O2 130.97(18) 3 7_667
O1 K2 O2 49.03(18) 9_557 7_667
O1 K2 O2 77.64(14) 2 7_667
O1 K2 O2 102.36(14) 8_557 7_667
O1 K2 O2 77.64(14) . 7_667
O1 K2 O2 102.36(14) 7_557 7_667
O2 K2 O2 119.14(5) 7_657 7_667
O2 K2 O2 60.86(5) 1_455 7_667
O1 K2 O2 49.03(18) 3 1_445
O1 K2 O2 130.97(18) 9_557 1_445
O1 K2 O2 102.36(14) 2 1_445
O1 K2 O2 77.64(14) 8_557 1_445
O1 K2 O2 102.36(14) . 1_445
O1 K2 O2 77.64(14) 7_557 1_445
O2 K2 O2 60.86(5) 7_657 1_445
O2 K2 O2 119.14(5) 1_455 1_445
O2 K2 O2 180.0 7_667 1_445
O1 K2 O2 102.36(14) 3 .
O1 K2 O2 77.64(14) 9_557 .
O1 K2 O2 102.36(14) 2 .
O1 K2 O2 77.64(14) 8_557 .
O1 K2 O2 49.03(18) . .
O1 K2 O2 130.97(18) 7_557 .
O2 K2 O2 60.86(5) 7_657 .
O2 K2 O2 119.14(5) 1_455 .
O2 K2 O2 60.86(5) 7_667 .
O2 K2 O2 119.14(5) 1_445 .
O1 K2 O2 77.64(14) 3 7_557
O1 K2 O2 102.36(14) 9_557 7_557
O1 K2 O2 77.64(14) 2 7_557
O1 K2 O2 102.36(14) 8_557 7_557
O1 K2 O2 130.97(18) . 7_557
O1 K2 O2 49.03(18) 7_557 7_557
O2 K2 O2 119.14(5) 7_657 7_557
O2 K2 O2 60.86(5) 1_455 7_557
O2 K2 O2 119.14(5) 7_667 7_557
O2 K2 O2 60.86(5) 1_445 7_557
O2 K2 O2 180.0 . 7_557
loop_
_geom_bond_atom_site_label_1
_geom_bond_atom_site_label_2
_geom_bond_distance
_geom_bond_site_symmetry_2
Er1 O1 2.214(5) 7_656
Er1 O1 2.214(5) 1_655
Er1 O1 2.214(5) 9_656
Er1 O1 2.214(5) 2_655
Er1 O1 2.214(5) 8_656
Er1 O1 2.214(5) 3_655
V1 O2 1.598(9) .
V1 O1 1.709(6) 2_655
V1 O1 1.709(6) .
V1 O1 1.709(6) 3_665
V1 K1 3.4097(5) 7_657
V1 K1 3.4097(5) 7_767
V1 K1 3.4097(5) 7_667
V1 K1 3.451(3) 1_554
O2 K1 2.554(9) .
O2 K2 3.4096(10) 1_655
O2 K2 3.4096(10) 1_665
O2 K2 3.4096(10) .
O1 Er1 2.214(5) 1_455
O1 K2 3.065(9) .
O1 K1 3.295(9) 1_554
K1 O1 3.295(9) 2_656
K1 O1 3.295(9) 3_666
K1 O1 3.295(9) 1_556
K1 V1 3.4097(5) 7_657
K1 V1 3.4097(5) 7_767
K2 O1 3.065(9) 3
K2 O1 3.065(9) 9_557
K2 O1 3.065(9) 2
K2 O1 3.065(9) 8_557
K2 O1 3.065(9) 7_557
K2 O2 3.4096(9) 7_657
K2 O2 3.4096(10) 1_455
K2 O2 3.4096(10) 7_667
K2 O2 3.4096(10) 1_445
K2 O2 3.4096(10) 7_557
