#------------------------------------------------------------------------------
#$Date: 2016-03-23 22:04:57 +0200 (Wed, 23 Mar 2016) $
#$Revision: 179466 $
#$URL: svn://www.crystallography.net/cod/cif/4/33/63/4336389.cif $
#------------------------------------------------------------------------------
#
# This file is available in the Crystallography Open Database (COD),
# http://www.crystallography.net/
#
# All data on this site have been placed in the public domain by the
# contributors.
#
data_4336389
loop_
_publ_author_name
'Sergey V. Ovsyannikov'
'Yury G. Zainulin'
'Nadezda I. Kadyrova'
'Alexander P. Tyutyunnik'
'Anna S. Semenova'
'Deepa Kasinathan'
'Alexander A. Tsirlin'
'Nobuyoshi Miyajima'
'Alexander E. Karkin'
_publ_section_title
;
 New Antiferromagnetic Perovskite CaCo3V4O12 Prepared at High-Pressure and
 High-Temperature Conditions
;
_journal_name_full               'Inorganic Chemistry'
_journal_page_first              11703
_journal_page_last               11710
_journal_paper_doi               10.1021/ic400649h
_journal_volume                  52
_journal_year                    2013
_chemical_formula_structural     'Ca Co3 V4 O12'
_chemical_formula_sum            'Ca Co3 O12 V4'
_chemical_formula_weight         612.64
_chemical_name_common            'Calcium Cobalt Vanadium Oxide'
_space_group_IT_number           204
_symmetry_cell_setting           cubic
_symmetry_space_group_name_Hall  '-I 2 2 3'
_symmetry_space_group_name_H-M   'I m -3'
_cell_angle_alpha                90.0
_cell_angle_beta                 90.0
_cell_angle_gamma                90.0
_cell_formula_units_Z            2
_cell_length_a                   7.34285(5)
_cell_length_b                   7.34285
_cell_length_c                   7.34285
_cell_measurement_temperature    298(2)
_cell_volume                     395.908(3)
_computing_data_collection
'STOE Powder Software Package (STOE, Germany)'
_computing_data_reduction
'STOE Powder Software Package (STOE, Germany)'
_computing_structure_refinement  GSAS
_computing_structure_solution
'GSAS (A.C. Larson and R.B. Von Dreele, 2004), EXPGUI (Toby, B.H., 2001)'
_diffrn_ambient_temperature      298(2)
_diffrn_detector                 'position sensitive detector'
_diffrn_detector_type            'linear mini-PSD (STOE)'
_diffrn_measurement_device_type  'transmission diffractometer Stadi-P (STOE)'
_diffrn_radiation_monochromator  'Primary, curved Ge 111'
_diffrn_radiation_polarisn_ratio 0.8
_diffrn_radiation_probe          x-ray
_diffrn_radiation_type           'Cu K~a~1'
_diffrn_radiation_wavelength     1.54056
_diffrn_source                   'sealed x-ray tube'
_diffrn_source_target            Cu
_diffrn_source_type              'PHILIPS PW 2283/20'
_exptl_absorpt_correction_T_max  1.0
_exptl_absorpt_correction_T_min  0.0
_exptl_absorpt_process_details
;   GSAS Absorption/surface roughness correction: function number 4
 Flat plate transmission absorption correction
Terms =    -0.37587         0.0000    
Correction is refined.
;
_exptl_crystal_density_diffrn    5.139
_exptl_crystal_density_method    'not measured'
_pd_calc_method                  'Rietveld Refinement'
_pd_instr_dist_mono/spec         130
_pd_instr_dist_spec/detc         220
_pd_instr_dist_src/mono          260
_pd_meas_2theta_range_inc        0.02
_pd_meas_2theta_range_max        119.98
_pd_meas_2theta_range_min        5.0
_pd_meas_scan_method             step
_pd_phase_name
'from C:/GSAS/MyWork/Kadyrova/CaCo3V4O12/CaCo3V4O12.cel'
_pd_proc_2theta_range_inc        0.02
_pd_proc_2theta_range_max        119.95344
_pd_proc_2theta_range_min        4.97344
_pd_proc_info_datetime           2012-11-13T13:46:17
_pd_proc_ls_background_function
;   GSAS Background function number 1 with 36 terms.
 Shifted Chebyshev function of 1st kind
      1:    11461.7     2:   -4626.50     3:    275.882     4:   -428.368    
      5:    162.518     6:    10.0946     7:   -25.7715     8:   -93.7900    
      9:   -30.3801    10:    66.5115    11:    58.2656    12:   -60.9280    
     13:   -25.0238    14:    18.2514    15:   -15.8577    16:    5.50891    
     17:    46.0594    18:   -52.4061    19:   -10.3352    20:    35.9039    
     21:   -23.3954    22:    21.6848    23:   -10.3351    24:   0.838042    
     25:    4.18058    26:   -10.1154    27:    24.9738    28:   -18.2057    
     29:    4.57692    30:    10.4142    31:   -14.8700    32:    6.30504    
     33:   -4.78482    34:  -3.022620E-0235:    7.57029    36:   -13.0292    
;
_pd_proc_ls_prof_R_factor        0.0077
_pd_proc_ls_prof_wR_expected     0.0093
_pd_proc_ls_prof_wR_factor       0.0098
_pd_spec_mounting                'powder on Mylar film'
_pd_spec_mount_mode              transmission
_pd_spec_shape                   flat_sheet
_pd_spec_size_axial              7
_pd_spec_size_equat              0.1
_refine_ls_goodness_of_fit_all   1.06
_refine_ls_matrix_type           full
_refine_ls_number_parameters     59
_refine_ls_number_restraints     0
_refine_ls_R_Fsqd_factor         0.04105
_refine_ls_shift/su_max          0.01
_refine_ls_shift/su_mean         0.00
_reflns_d_resolution_high        0.890
_reflns_d_resolution_low         5.192
_reflns_limit_h_max              8
_reflns_limit_h_min              0
_reflns_limit_k_max              8
_reflns_limit_k_min              0
_reflns_limit_l_max              6
_reflns_limit_l_min              0
_reflns_number_total             267
_cod_data_source_file            ic400649h_si_002_1.cif
_cod_data_source_block           CACO3V4O12_phase_1
_cod_database_code               4336389
_cod_database_fobs_code          4336389
#BEGIN Tags that were not found in dictionaries:
_gsas_exptl_extinct_corr_t_min   1.00000
_gsas_exptl_extinct_corr_t_max   1.00000
#END Tags that were not found in dictionaries
loop_
_symmetry_equiv_pos_site_id
_symmetry_equiv_pos_as_xyz
1 +x,+y,+z
2 +z,+x,+y
3 +y,+z,+x
4 +x,+y,-z
5 -z,+x,+y
6 +y,-z,+x
7 -z,+x,-y
8 -y,-z,+x
9 +y,-z,-x
10 -x,+y,-z
11 -z,-x,+y
12 +x,-y,-z
-1 -x,-y,-z
-2 -z,-x,-y
-3 -y,-z,-x
-4 -x,-y,+z
-5 +z,-x,-y
-6 -y,+z,-x
-7 +z,-x,+y
-8 +y,+z,-x
-9 -y,+z,+x
-10 +x,-y,+z
-11 +z,+x,-y
-12 -x,+y,+z
101 +x+1/2,+y+1/2,+z+1/2
102 +z+1/2,+x+1/2,+y+1/2
103 +y+1/2,+z+1/2,+x+1/2
104 +x+1/2,+y+1/2,-z+1/2
105 -z+1/2,+x+1/2,+y+1/2
106 +y+1/2,-z+1/2,+x+1/2
107 -z+1/2,+x+1/2,-y+1/2
108 -y+1/2,-z+1/2,+x+1/2
109 +y+1/2,-z+1/2,-x+1/2
110 -x+1/2,+y+1/2,-z+1/2
111 -z+1/2,-x+1/2,+y+1/2
112 +x+1/2,-y+1/2,-z+1/2
-101 -x+1/2,-y+1/2,-z+1/2
-102 -z+1/2,-x+1/2,-y+1/2
-103 -y+1/2,-z+1/2,-x+1/2
-104 -x+1/2,-y+1/2,+z+1/2
-105 +z+1/2,-x+1/2,-y+1/2
-106 -y+1/2,+z+1/2,-x+1/2
-107 +z+1/2,-x+1/2,+y+1/2
-108 +y+1/2,+z+1/2,-x+1/2
-109 -y+1/2,+z+1/2,+x+1/2
-110 +x+1/2,-y+1/2,+z+1/2
-111 +z+1/2,+x+1/2,-y+1/2
-112 -x+1/2,+y+1/2,+z+1/2
loop_
_atom_site_aniso_label
_atom_site_aniso_U_11
_atom_site_aniso_U_12
_atom_site_aniso_U_13
_atom_site_aniso_U_22
_atom_site_aniso_U_23
_atom_site_aniso_U_33
Ca 0.024(4) 0.0 0.0 0.024(4) 0.0 0.024(4)
Co 0.023(5) 0.0 0.0 0.052(4) 0.0 0.0669(34)
V 0.0301(16) 0.0044(15) 0.0044(15) 0.0301(16) 0.0044(15) 0.0301(16)
loop_
_atom_site_type_symbol
_atom_site_label
_atom_site_fract_x
_atom_site_fract_y
_atom_site_fract_z
_atom_site_occupancy
_atom_site_thermal_displace_type
_atom_site_U_iso_or_equiv
_atom_site_symmetry_multiplicity
Ca Ca 0.0 0.0 0.0 1.0 Uani 0.02383 2
Co Co 0.0 0.5 0.5 1.0 Uani 0.0472 6
V V 0.25 0.25 0.25 1.0 Uani 0.03011 8
O O 0.0 0.7010(8) 0.1885(7) 1.0 Uiso 0.0268(14) 24
loop_
_atom_type_symbol
_atom_type_number_in_cell
Ca 2.0
Co 6.0
V 8.0
O 24.0
loop_
_geom_angle_atom_site_label_1
_geom_angle_atom_site_label_2
_geom_angle_atom_site_label_3
_geom_angle
_geom_angle_site_symmetry_1
_geom_angle_site_symmetry_3
_geom_angle_publ_flag
O Ca O 116.814(32) 1_545 2_554 n
O Ca O 116.814(32) 1_545 3_455 n
O Ca O 64.45(13) 1_545 4_545 n
O Ca O 116.814(32) 1_545 5_554 n
O Ca O 63.186(32) 1_545 6_455 n
O Ca O 63.186(32) 1_545 7_556 n
O Ca O 63.186(32) 1_545 8_655 n
O Ca O 115.55(13) 1_545 -4_565 n
O Ca O 63.186(32) 1_545 -5_556 n
O Ca O 116.814(32) 1_545 -6_655 n
O Ca O 116.814(32) 2_554 3_455 n
O Ca O 63.186(32) 2_554 4_545 n
O Ca O 64.45(13) 2_554 5_554 n
O Ca O 116.814(32) 2_554 6_455 n
O Ca O 63.186(32) 2_554 8_655 n
O Ca O 63.186(32) 2_554 12_565 n
O Ca O 116.814(32) 2_554 -4_565 n
O Ca O 115.55(13) 2_554 -5_556 n
O Ca O 63.186(32) 2_554 -6_655 n
O Ca O 116.814(32) 3_455 4_545 n
O Ca O 63.186(32) 3_455 5_554 n
O Ca O 64.45(13) 3_455 6_455 n
O Ca O 63.186(32) 3_455 7_556 n
O Ca O 63.186(32) 3_455 12_565 n
O Ca O 63.186(32) 3_455 -4_565 n
O Ca O 116.814(32) 3_455 -5_556 n
O Ca O 115.55(13) 3_455 -6_655 n
O Ca O 63.186(32) 4_545 5_554 n
O Ca O 63.186(32) 4_545 6_455 n
O Ca O 116.814(32) 4_545 7_556 n
O Ca O 63.186(32) 4_545 8_655 n
O Ca O 115.55(13) 4_545 12_565 n
O Ca O 116.814(32) 4_545 -5_556 n
O Ca O 116.814(32) 4_545 -6_655 n
O Ca O 63.186(32) 5_554 6_455 n
O Ca O 115.55(13) 5_554 7_556 n
O Ca O 116.814(32) 5_554 8_655 n
O Ca O 63.186(32) 5_554 12_565 n
O Ca O 116.814(32) 5_554 -4_565 n
O Ca O 116.814(32) 5_554 -6_655 n
O Ca O 63.186(32) 6_455 7_556 n
O Ca O 115.55(13) 6_455 8_655 n
O Ca O 116.814(32) 6_455 12_565 n
O Ca O 116.814(32) 6_455 -4_565 n
O Ca O 116.814(32) 6_455 -5_556 n
O Ca O 116.814(32) 7_556 8_655 n
O Ca O 116.814(32) 7_556 12_565 n
O Ca O 63.186(32) 7_556 -4_565 n
O Ca O 64.45(13) 7_556 -5_556 n
O Ca O 116.814(32) 7_556 -6_655 n
O Ca O 116.814(32) 8_655 12_565 n
O Ca O 116.814(32) 8_655 -4_565 n
O Ca O 63.186(32) 8_655 -5_556 n
O Ca O 64.45(13) 8_655 -6_655 n
O Ca O 64.45(13) 12_565 -4_565 n
O Ca O 116.814(32) 12_565 -5_556 n
O Ca O 63.186(32) 12_565 -6_655 n
O Ca O 63.186(32) -4_565 -5_556 n
O Ca O 63.186(32) -4_565 -6_655 n
O Ca O 63.186(32) -5_556 -6_655 n
O Co O 86.3(4) 103_455 106_455 n
O Co O 93.7(4) 103_455 -106_555 n
O Co O 93.7(4) 106_455 108_555 n
O Co O 86.3(4) 108_555 -106_555 n
O V O 89.92(30) -4_565 -5_556 n
O V O 89.92(30) -4_565 -6_655 n
O V O 90.08(30) -4_565 105_554 n
O V O 90.08(30) -4_565 106_455 n
O V O 89.92(30) -5_556 -6_655 n
O V O 90.08(30) -5_556 104_545 n
O V O 90.08(30) -5_556 106_455 n
O V O 90.08(30) -6_655 104_545 n
O V O 90.08(30) -6_655 105_554 n
O V O 89.92(30) 104_545 105_554 n
O V O 89.92(30) 104_545 106_455 n
O V O 89.92(30) 105_554 106_455 n
loop_
_geom_bond_atom_site_label_1
_geom_bond_atom_site_label_2
_geom_bond_distance
_geom_bond_site_symmetry_2
_geom_bond_publ_flag
Ca O 2.596(7) 1_545 n
Ca O 2.596(7) 2_554 n
Ca O 2.596(7) 3_455 n
Ca O 2.596(7) 4_545 n
Ca O 2.596(7) 5_554 n
Ca O 2.596(7) 6_455 n
Ca O 2.596(7) 7_556 n
Ca O 2.596(7) 8_655 n
Ca O 2.596(7) 12_565 n
Ca O 2.596(7) -4_565 n
Ca O 2.596(7) -5_556 n
Ca O 2.596(7) -6_655 n
Co O 2.0231(28) 103_455 n
Co O 2.0231(28) 106_455 n
Co O 2.0231(28) 108_555 n
Co O 2.0231(28) -106_555 n
V O 1.9245(9) -4_565 n
V O 1.9245(9) -5_556 n
V O 1.9245(9) -6_655 n
V O 1.9245(9) 104_545 n
V O 1.9245(9) 105_554 n
V O 1.9245(9) 106_455 n
O Ca 2.596(7) 1_565 n
O Co 2.0231(28) 102_454 n
O V 1.9245(9) 6_565 n
O V 1.9245(9) 8_565 n
loop_
_pd_block_diffractogram_id
2012-11-13T13:46|CACO3V4O12_H_01|Tyutyunnik|STADI-P
