#------------------------------------------------------------------------------
#$Date: 2015-06-04 13:53:05 +0300 (Thu, 04 Jun 2015) $
#$Revision: 137918 $
#$URL: svn://www.crystallography.net/cod/cif/4/34/31/4343147.cif $
#------------------------------------------------------------------------------
#
# This file is available in the Crystallography Open Database (COD),
# http://www.crystallography.net/
#
# All data on this site have been placed in the public domain by the
# contributors.
#
data_4343147
loop_
_publ_author_name
'Artini, Cristina'
'Pani, Marcella'
'Carnasciali, Maria Maddalena'
'Buscaglia, Maria Teresa'
'Plaisier, Jasper Rikkert'
'Costa, Giorgio Andrea'
_publ_section_title
;
 Structural Features of Sm- and Gd-Doped Ceria Studied by Synchrotron
 X-ray Diffraction and \m-Raman Spectroscopy.
;
_journal_issue                   8
_journal_name_full               'Inorganic chemistry'
_journal_page_first              4126
_journal_page_last               4137
_journal_paper_doi               10.1021/acs.inorgchem.5b00395
_journal_volume                  54
_journal_year                    2015
_chemical_formula_sum            'Ce0.3 O1.65 Sm0.7'
_chemical_formula_weight         173.6810
_chemical_name_common            'Cerium samarium mixed oxide'
_space_group_IT_number           206
_symmetry_cell_setting           cubic
_symmetry_space_group_name_Hall  '-I 2b 2c 3'
_symmetry_space_group_name_H-M   'I a -3'
_cell_angle_alpha                90.00000
_cell_angle_beta                 90.00000
_cell_angle_gamma                90.00000
_cell_formula_units_Z            32
_cell_length_a                   10.92623(7)
_cell_length_b                   10.92623(7)
_cell_length_c                   10.92623(7)
_cell_measurement_temperature    298
_cell_volume                     1304.401(14)
_computing_structure_refinement  FULLPROF
_diffrn_ambient_temperature      298
_diffrn_detector                 'fast scintillator detector'
_diffrn_measurement_device_type  'Huber 4-axes X-ray diffractometer'
_diffrn_measurement_method       '2\q in the range 5-60 deg'
_diffrn_radiation_wavelength     0.74923
_diffrn_source                   synchrotron
_exptl_absorpt_coefficient_mu    44.05
_exptl_absorpt_correction_type   none
_pd_char_colour                  white
_pd_instr_location
; powder diffraction beamline (MCX) of the Elettra synchrotron radiation
 facility located in Trieste, Italy
;
_pd_meas_2theta_range_inc        0.01000
_pd_meas_2theta_range_max        60.00000
_pd_meas_2theta_range_min        9.00000
_pd_meas_number_of_points        5101
_pd_meas_scan_method             step
_pd_prep_pressure                101
_pd_prep_temperature             1473
_pd_proc_2theta_range_inc        0.010000
_pd_proc_2theta_range_max        60.0000
_pd_proc_2theta_range_min        9.0000
_pd_proc_ls_background_function
;
linear interpolation between a set of background points with refinable heights
;
_pd_proc_ls_profile_function     Pseudo-Voigt
_pd_proc_ls_prof_R_factor        8.9251
_pd_proc_ls_prof_wR_expected     8.5922
_pd_proc_ls_prof_wR_factor       12.0974
_pd_proc_wavelength              0.749230
_pd_spec_mounting
' quartz capillary tube with inner diameter of 0.5 mm '
_pd_spec_mount_mode              transmission
_pd_spec_shape                   cylinder
_pd_spec_size_axial              20
_pd_spec_size_equat              0.5
_refine_ls_goodness_of_fit_all   1.41
_refine_ls_number_parameters     85
_refine_ls_number_reflns         284
_refine_ls_number_restraints     0
_refine_ls_R_I_factor            4.6119
_refine_ls_shift/su_max          0.1
_cod_data_source_file            ic5b00395_si_002.cif
_cod_data_source_block           Sm70_1473
_cod_depositor_comments
;
The following automatic conversions were performed:

'_symmetry_cell_setting' value 'Cubic' changed to 'cubic' according
to
/usr/data/users/saulius/crontab/automatic-downloads/current/ACS/lib/dictionaries/cif_core.dic
dictionary named 'cif_core.dic' version 2.4.2 from 2011-04-26.

Automatic conversion script
Id: cif_fix_values 3271 2015-04-21 07:52:19Z andrius 
;
_cod_original_cell_volume        1304.400(15)
_cod_database_code               4343147
_pd_proc_ls_prof_cr_factor       19.4857
_pd_proc_ls_prof_cwr_factor      19.5741
_pd_proc_ls_prof_cwr_expected    13.9025
_pd_proc_ls_prof_chi2            1.9823
_pd_proc_ls_prof_echi2           2.0227
loop_
_symmetry_equiv_pos_as_xyz
x,y,z
x+1/2,-y+1/2,-z
-x,y+1/2,-z+1/2
-x+1/2,-y,z+1/2
y,z,x
-y+1/2,-z,x+1/2
y+1/2,-z+1/2,-x
-y,z+1/2,-x+1/2
z,x,y
-z,x+1/2,-y+1/2
-z+1/2,-x,y+1/2
z+1/2,-x+1/2,-y
-x,-y,-z
-x+1/2,y+1/2,z
x,-y+1/2,z+1/2
x+1/2,y,-z+1/2
-y,-z,-x
y+1/2,z,-x+1/2
-y+1/2,z+1/2,x
y,-z+1/2,x+1/2
-z,-x,-y
z,-x+1/2,y+1/2
z+1/2,x,-y+1/2
-z+1/2,x+1/2,y
x+1/2,y+1/2,z+1/2
x,-y,-z+1/2
-x+1/2,y,-z
-x,-y+1/2,z
y+1/2,z+1/2,x+1/2
-y,-z+1/2,x
y,-z,-x+1/2
-y+1/2,z,-x
z+1/2,x+1/2,y+1/2
-z+1/2,x,-y
-z,-x+1/2,y
z,-x,-y+1/2
-x+1/2,-y+1/2,-z+1/2
-x,y,z+1/2
x+1/2,-y,z
x,y+1/2,-z
-y+1/2,-z+1/2,-x+1/2
y,z+1/2,-x
-y,z,x+1/2
y+1/2,-z,x
-z+1/2,-x+1/2,-y+1/2
z+1/2,-x,y
z,x+1/2,-y
-z,x,y+1/2
loop_
_atom_site_label
_atom_site_fract_x
_atom_site_fract_y
_atom_site_fract_z
_atom_site_U_iso_or_equiv
_atom_site_occupancy
_atom_site_adp_type
_atom_site_type_symbol
Ce1 0.27208(3) 0.00000 0.25000 0.00000 0.30000 Uiso Ce
Sm1 0.27208(3) 0.00000 0.25000 0.00000 0.70000 Uiso Sm
Ce2 0.00000 0.00000 0.00000 0.00000 0.30000 Uiso Ce
Sm2 0.00000 0.00000 0.00000 0.00000 0.70000 Uiso Sm
O1 0.1061(3) 0.3589(3) 0.1290(4) 0.00000 1.00000 Uiso O
O2 0.1525(8) 0.1525(8) 0.1525(8) 0.00000 0.42093 Uiso O
loop_
_atom_type_symbol
_atom_type_scat_Cromer_Mann_a1
_atom_type_scat_Cromer_Mann_b1
_atom_type_scat_Cromer_Mann_a2
_atom_type_scat_Cromer_Mann_b2
_atom_type_scat_Cromer_Mann_a3
_atom_type_scat_Cromer_Mann_b3
_atom_type_scat_Cromer_Mann_a4
_atom_type_scat_Cromer_Mann_b4
_atom_type_scat_Cromer_Mann_c
_atom_type_scat_dispersion_real
_atom_type_scat_dispersion_imag
_atom_type_scat_source
ce 21.16710 2.81219 19.76950 0.22684 11.85130 17.60830 3.33049 127.11300
1.86264 -0.56400 2.63200
International_Tables_for_Crystallography_Vol.C(1991)_Tables_6.1.1.4_and_6.1.1.5
sm 24.00420 2.47274 19.42580 0.19645 13.43960 14.39960 2.89604 128.00700
2.20963 -0.53300 3.44200
International_Tables_for_Crystallography_Vol.C(1991)_Tables_6.1.1.4_and_6.1.1.5
o 3.04850 13.27710 2.28680 5.70110 1.54630 0.32390 0.86700 32.90890 0.25080
0.00800 0.00600
International_Tables_for_Crystallography_Vol.C(1991)_Tables_6.1.1.4_and_6.1.1.5
loop_
_geom_angle_atom_site_label_1
_geom_angle_atom_site_label_2
_geom_angle_atom_site_label_3
_geom_angle
_geom_angle_site_symmetry_1
_geom_angle_site_symmetry_3
O1 Ce1 O1 109.0(3) 5_555 9_555
O1 Ce1 O1 78.00(19) 5_555 14_545
O1 Ce1 O1 131.6(3) 5_555 31_555
O1 Ce1 O1 103.6(2) 5_555 36_555
O1 Ce1 O1 76.0(2) 5_555 37_555
O1 Ce1 O2 59.5(3) 5_555 1_555
O1 Ce1 O2 163.6(5) 5_555 26_555
O1 Ce1 O1 169.2(3) 9_555 14_545
O1 Ce1 O1 103.6(2) 9_555 31_555
O1 Ce1 O1 93.5(2) 9_555 36_555
O1 Ce1 O1 76.64(19) 9_555 37_555
O1 Ce1 O2 60.0(3) 9_555 1_555
O1 Ce1 O2 75.2(4) 9_555 26_555
O1 Ce1 O1 76.0(2) 14_545 31_555
O1 Ce1 O1 76.64(19) 14_545 36_555
O1 Ce1 O1 113.5(2) 14_545 37_555
O1 Ce1 O2 120.2(4) 14_545 1_555
O1 Ce1 O2 95.8(4) 14_545 26_555
O1 Ce1 O1 109.0(3) 31_555 36_555
O1 Ce1 O1 78.00(19) 31_555 37_555
O1 Ce1 O2 163.6(5) 31_555 1_555
O1 Ce1 O2 59.5(3) 31_555 26_555
O1 Ce1 O1 169.2(3) 36_555 37_555
O1 Ce1 O2 75.2(4) 36_555 1_555
O1 Ce1 O2 60.0(3) 36_555 26_555
O1 Ce1 O2 95.8(4) 37_555 1_555
O1 Ce1 O2 120.2(4) 37_555 26_555
O2 Ce1 O2 113.1(6) 1_555 26_555
O1 Sm1 O1 109.0(3) 5_555 9_555
O1 Sm1 O1 78.00(19) 5_555 14_545
O1 Sm1 O1 131.6(3) 5_555 31_555
O1 Sm1 O1 103.6(2) 5_555 36_555
O1 Sm1 O1 76.0(2) 5_555 37_555
O1 Sm1 O2 59.5(3) 5_555 1_555
O1 Sm1 O2 163.6(5) 5_555 26_555
O1 Sm1 O1 169.2(3) 9_555 14_545
O1 Sm1 O1 103.6(2) 9_555 31_555
O1 Sm1 O1 93.5(2) 9_555 36_555
O1 Sm1 O1 76.64(19) 9_555 37_555
O1 Sm1 O2 60.0(3) 9_555 1_555
O1 Sm1 O2 75.2(4) 9_555 26_555
O1 Sm1 O1 76.0(2) 14_545 31_555
O1 Sm1 O1 76.64(19) 14_545 36_555
O1 Sm1 O1 113.5(2) 14_545 37_555
O1 Sm1 O2 120.2(4) 14_545 1_555
O1 Sm1 O2 95.8(4) 14_545 26_555
O1 Sm1 O1 109.0(3) 31_555 36_555
O1 Sm1 O1 78.00(19) 31_555 37_555
O1 Sm1 O2 163.6(5) 31_555 1_555
O1 Sm1 O2 59.5(3) 31_555 26_555
O1 Sm1 O1 169.2(3) 36_555 37_555
O1 Sm1 O2 75.2(4) 36_555 1_555
O1 Sm1 O2 60.0(3) 36_555 26_555
O1 Sm1 O2 95.8(4) 37_555 1_555
O1 Sm1 O2 120.2(4) 37_555 26_555
O2 Sm1 O2 113.1(6) 1_555 26_555
O1 Ce2 O1 102.6(2) 28_555 32_555
O1 Ce2 O1 102.6(2) 28_555 36_555
O1 Ce2 O1 180.0(3) 28_555 40_545
O1 Ce2 O1 77.37(19) 28_555 44_455
O1 Ce2 O1 77.4(2) 28_555 48_554
O1 Ce2 O2 64.3(3) 28_555 1_555
O1 Ce2 O2 115.7(4) 28_555 13_555
O1 Ce2 O1 102.6(2) 32_555 36_555
O1 Ce2 O1 77.37(19) 32_555 40_545
O1 Ce2 O1 180.0(3) 32_555 44_455
O1 Ce2 O1 77.37(19) 32_555 48_554
O1 Ce2 O2 64.3(3) 32_555 1_555
O1 Ce2 O2 115.7(4) 32_555 13_555
O1 Ce2 O1 77.4(2) 36_555 40_545
O1 Ce2 O1 77.37(19) 36_555 44_455
O1 Ce2 O1 180.0(3) 36_555 48_554
O1 Ce2 O2 64.3(3) 36_555 1_555
O1 Ce2 O2 115.7(4) 36_555 13_555
O1 Ce2 O1 102.6(2) 40_545 44_455
O1 Ce2 O1 102.6(2) 40_545 48_554
O1 Ce2 O2 115.7(4) 40_545 1_555
O1 Ce2 O2 64.3(3) 40_545 13_555
O1 Ce2 O1 102.6(2) 44_455 48_554
O1 Ce2 O2 115.7(4) 44_455 1_555
O1 Ce2 O2 64.3(3) 44_455 13_555
O1 Ce2 O2 115.7(4) 48_554 1_555
O1 Ce2 O2 64.3(3) 48_554 13_555
O2 Ce2 O2 180.0(5) 1_555 13_555
O1 Sm2 O1 102.6(2) 28_555 32_555
O1 Sm2 O1 102.6(2) 28_555 36_555
O1 Sm2 O1 180.0(3) 28_555 40_545
O1 Sm2 O1 77.37(19) 28_555 44_455
O1 Sm2 O1 77.4(2) 28_555 48_554
O1 Sm2 O2 64.3(3) 28_555 1_555
O1 Sm2 O2 115.7(4) 28_555 13_555
O1 Sm2 O1 102.6(2) 32_555 36_555
O1 Sm2 O1 77.37(19) 32_555 40_545
O1 Sm2 O1 180.0(3) 32_555 44_455
O1 Sm2 O1 77.37(19) 32_555 48_554
O1 Sm2 O2 64.3(3) 32_555 1_555
O1 Sm2 O2 115.7(4) 32_555 13_555
O1 Sm2 O1 77.4(2) 36_555 40_545
O1 Sm2 O1 77.37(19) 36_555 44_455
O1 Sm2 O1 180.0(3) 36_555 48_554
O1 Sm2 O2 64.3(3) 36_555 1_555
O1 Sm2 O2 115.7(4) 36_555 13_555
O1 Sm2 O1 102.6(2) 40_545 44_455
O1 Sm2 O1 102.6(2) 40_545 48_554
O1 Sm2 O2 115.7(4) 40_545 1_555
O1 Sm2 O2 64.3(3) 40_545 13_555
O1 Sm2 O1 102.6(2) 44_455 48_554
O1 Sm2 O2 115.7(4) 44_455 1_555
O1 Sm2 O2 64.3(3) 44_455 13_555
O1 Sm2 O2 115.7(4) 48_554 1_555
O1 Sm2 O2 64.3(3) 48_554 13_555
O2 Sm2 O2 180.0(5) 1_555 13_555
Ce1 O1 Ce1 123.28(13) 5_555 9_555
Ce1 O1 Ce1 103.69(13) 5_555 14_555
Ce1 O1 Sm1 123.28(13) 5_555 9_555
Ce1 O1 Sm1 103.69(13) 5_555 14_555
Ce1 O1 Ce2 119.63(13) 5_555 28_555
Ce1 O1 Sm2 119.63(13) 5_555 28_555
Ce1 O1 O1 129.64(19) 5_555 19_555
Ce1 O1 O1 141.9(2) 5_555 22_554
Ce1 O1 O1 53.94(17) 5_555 41_555
Ce1 O1 O1 122.72(19) 5_555 45_555
Ce1 O1 O2 61.9(3) 5_555 1_555
Ce1 O1 O2 53.8(3) 5_555 28_555
Ce1 O1 Ce1 102.67(13) 9_555 14_555
Ce1 O1 Sm1 123.28(13) 9_555 5_555
Ce1 O1 Sm1 102.67(13) 9_555 14_555
Ce1 O1 Ce2 103.58(13) 9_555 28_555
Ce1 O1 Sm2 103.58(13) 9_555 28_555
Ce1 O1 O1 105.48(17) 9_555 19_555
Ce1 O1 O1 52.69(17) 9_555 22_554
Ce1 O1 O1 122.2(2) 9_555 41_555
Ce1 O1 O1 53.74(15) 9_555 45_555
Ce1 O1 O2 61.4(3) 9_555 1_555
Ce1 O1 O2 135.5(4) 9_555 28_555
Ce1 O1 Sm1 103.69(13) 14_555 5_555
Ce1 O1 Sm1 102.67(13) 14_555 9_555
Ce1 O1 Ce2 100.22(12) 14_555 28_555
Ce1 O1 Sm2 100.22(12) 14_555 28_555
Ce1 O1 O1 49.31(14) 14_555 19_555
Ce1 O1 O1 114.3(2) 14_555 22_554
Ce1 O1 O1 50.23(16) 14_555 41_555
Ce1 O1 O1 49.41(14) 14_555 45_555
Ce1 O1 O2 115.9(4) 14_555 1_555
Ce1 O1 O2 121.6(4) 14_555 28_555
Sm1 O1 Sm1 123.28(13) 5_555 9_555
Sm1 O1 Sm1 103.69(13) 5_555 14_555
Sm1 O1 Ce2 119.63(13) 5_555 28_555
Sm1 O1 Sm2 119.63(13) 5_555 28_555
Sm1 O1 O1 129.64(19) 5_555 19_555
Sm1 O1 O1 141.9(2) 5_555 22_554
Sm1 O1 O1 53.94(17) 5_555 41_555
Sm1 O1 O1 122.72(19) 5_555 45_555
Sm1 O1 O2 61.9(3) 5_555 1_555
Sm1 O1 O2 53.8(3) 5_555 28_555
Sm1 O1 Sm1 102.67(13) 9_555 14_555
Sm1 O1 Ce2 103.58(13) 9_555 28_555
Sm1 O1 Sm2 103.58(13) 9_555 28_555
Sm1 O1 O1 105.48(17) 9_555 19_555
Sm1 O1 O1 52.69(17) 9_555 22_554
Sm1 O1 O1 122.2(2) 9_555 41_555
Sm1 O1 O1 53.74(15) 9_555 45_555
Sm1 O1 O2 61.4(3) 9_555 1_555
Sm1 O1 O2 135.5(4) 9_555 28_555
Sm1 O1 Ce2 100.22(12) 14_555 28_555
Sm1 O1 Sm2 100.22(12) 14_555 28_555
Sm1 O1 O1 49.31(14) 14_555 19_555
Sm1 O1 O1 114.3(2) 14_555 22_554
Sm1 O1 O1 50.23(16) 14_555 41_555
Sm1 O1 O1 49.41(14) 14_555 45_555
Sm1 O1 O2 115.9(4) 14_555 1_555
Sm1 O1 O2 121.6(4) 14_555 28_555
Ce2 O1 O1 51.32(14) 28_555 19_555
Ce2 O1 O1 51.32(16) 28_555 22_554
Ce2 O1 O1 128.2(2) 28_555 41_555
Ce2 O1 O1 115.01(18) 28_555 45_555
Ce2 O1 O2 142.8(5) 28_555 1_555
Ce2 O1 O2 66.3(3) 28_555 28_555
Sm2 O1 O1 51.32(14) 28_555 19_555
Sm2 O1 O1 51.32(16) 28_555 22_554
Sm2 O1 O1 128.2(2) 28_555 41_555
Sm2 O1 O1 115.01(18) 28_555 45_555
Sm2 O1 O2 142.8(5) 28_555 1_555
Sm2 O1 O2 66.3(3) 28_555 28_555
O1 O1 O1 77.29(20) 19_555 22_554
O1 O1 O1 91.2(2) 19_555 41_555
O1 O1 O1 75.38(17) 19_555 45_555
O1 O1 O2 160.0(5) 19_555 1_555
O1 O1 O2 100.3(4) 19_555 28_555
O1 O1 O1 164.1(3) 22_554 41_555
O1 O1 O1 86.8(2) 22_554 45_555
O1 O1 O2 102.4(4) 22_554 1_555
O1 O1 O2 100.3(4) 22_554 28_555
O1 O1 O1 79.6(2) 41_555 45_555
O1 O1 O2 84.6(4) 41_555 1_555
O1 O1 O2 92.4(4) 41_555 28_555
O1 O1 O2 84.6(4) 45_555 1_555
O1 O1 O2 170.8(4) 45_555 28_555
O2 O1 O2 99.5(5) 1_555 28_555
Ce1 O2 Ce1 117.1(3) 1_555 5_555
Ce1 O2 Ce1 117.1(3) 1_555 9_555
Ce1 O2 Sm1 117.1(3) 1_555 5_555
Ce1 O2 Sm1 117.1(3) 1_555 9_555
Ce1 O2 Ce2 99.9(3) 1_555 1_555
Ce1 O2 Sm2 99.9(3) 1_555 1_555
Ce1 O2 O1 148.4(4) 1_555 1_555
Ce1 O2 O1 59.1(3) 1_555 5_555
Ce1 O2 O1 58.1(3) 1_555 9_555
Ce1 O2 O1 123.9(3) 1_555 28_555
Ce1 O2 O1 114.1(3) 1_555 32_555
Ce1 O2 O1 51.0(3) 1_555 36_555
Ce1 O2 Ce1 117.1(3) 5_555 9_555
Ce1 O2 Sm1 117.1(3) 5_555 1_555
Ce1 O2 Sm1 117.1(3) 5_555 9_555
Ce1 O2 Ce2 99.9(3) 5_555 1_555
Ce1 O2 Sm2 99.9(3) 5_555 1_555
Ce1 O2 O1 58.1(3) 5_555 1_555
Ce1 O2 O1 148.4(4) 5_555 5_555
Ce1 O2 O1 59.1(3) 5_555 9_555
Ce1 O2 O1 51.0(3) 5_555 28_555
Ce1 O2 O1 123.9(3) 5_555 32_555
Ce1 O2 O1 114.1(3) 5_555 36_555
Ce1 O2 Sm1 117.1(3) 9_555 1_555
Ce1 O2 Sm1 117.1(3) 9_555 5_555
Ce1 O2 Ce2 99.9(3) 9_555 1_555
Ce1 O2 Sm2 99.9(3) 9_555 1_555
Ce1 O2 O1 59.1(3) 9_555 1_555
Ce1 O2 O1 58.1(3) 9_555 5_555
Ce1 O2 O1 148.4(4) 9_555 9_555
Ce1 O2 O1 114.1(3) 9_555 28_555
Ce1 O2 O1 51.0(3) 9_555 32_555
Ce1 O2 O1 123.9(3) 9_555 36_555
Sm1 O2 Sm1 117.1(3) 1_555 5_555
Sm1 O2 Sm1 117.1(3) 1_555 9_555
Sm1 O2 Ce2 99.9(3) 1_555 1_555
Sm1 O2 Sm2 99.9(3) 1_555 1_555
Sm1 O2 O1 148.4(4) 1_555 1_555
Sm1 O2 O1 59.1(3) 1_555 5_555
Sm1 O2 O1 58.1(3) 1_555 9_555
Sm1 O2 O1 123.9(3) 1_555 28_555
Sm1 O2 O1 114.1(3) 1_555 32_555
Sm1 O2 O1 51.0(3) 1_555 36_555
Sm1 O2 Sm1 117.1(3) 5_555 9_555
Sm1 O2 Ce2 99.9(3) 5_555 1_555
Sm1 O2 Sm2 99.9(3) 5_555 1_555
Sm1 O2 O1 58.1(3) 5_555 1_555
Sm1 O2 O1 148.4(4) 5_555 5_555
Sm1 O2 O1 59.1(3) 5_555 9_555
Sm1 O2 O1 51.0(3) 5_555 28_555
Sm1 O2 O1 123.9(3) 5_555 32_555
Sm1 O2 O1 114.1(3) 5_555 36_555
Sm1 O2 Ce2 99.9(3) 9_555 1_555
Sm1 O2 Sm2 99.9(3) 9_555 1_555
Sm1 O2 O1 59.1(3) 9_555 1_555
Sm1 O2 O1 58.1(3) 9_555 5_555
Sm1 O2 O1 148.4(4) 9_555 9_555
Sm1 O2 O1 114.1(3) 9_555 28_555
Sm1 O2 O1 51.0(3) 9_555 32_555
Sm1 O2 O1 123.9(3) 9_555 36_555
Ce2 O2 O1 111.7(3) 1_555 1_555
Ce2 O2 O1 111.7(3) 1_555 5_555
Ce2 O2 O1 111.7(3) 1_555 9_555
Ce2 O2 O1 49.3(3) 1_555 28_555
Ce2 O2 O1 49.3(3) 1_555 32_555
Ce2 O2 O1 49.3(3) 1_555 36_555
Sm2 O2 O1 111.7(3) 1_555 1_555
Sm2 O2 O1 111.7(3) 1_555 5_555
Sm2 O2 O1 111.7(3) 1_555 9_555
Sm2 O2 O1 49.3(3) 1_555 28_555
Sm2 O2 O1 49.3(3) 1_555 32_555
Sm2 O2 O1 49.3(3) 1_555 36_555
O1 O2 O1 107.1(4) 1_555 5_555
O1 O2 O1 107.1(4) 1_555 9_555
O1 O2 O1 79.4(3) 1_555 28_555
O1 O2 O1 88.2(3) 1_555 32_555
O1 O2 O1 160.1(4) 1_555 36_555
O1 O2 O1 107.1(4) 5_555 9_555
O1 O2 O1 160.1(4) 5_555 28_555
O1 O2 O1 79.4(3) 5_555 32_555
O1 O2 O1 88.2(3) 5_555 36_555
O1 O2 O1 88.2(3) 9_555 28_555
O1 O2 O1 160.1(4) 9_555 32_555
O1 O2 O1 79.4(3) 9_555 36_555
O1 O2 O1 82.1(3) 28_555 32_555
O1 O2 O1 82.1(3) 28_555 36_555
O1 O2 O1 82.1(3) 32_555 36_555
loop_
_geom_bond_atom_site_label_1
_geom_bond_atom_site_label_2
_geom_bond_distance
_geom_bond_site_symmetry_2
Ce1 O1 2.315(4) 5_555
Ce1 O1 2.281(4) 9_555
Ce1 O1 2.428(4) 14_545
Ce1 O1 2.315(4) 31_555
Ce1 O1 2.281(4) 36_555
Ce1 O1 2.428(4) 37_555
Ce1 O2 2.370(9) 1_555
Ce1 O2 2.370(9) 26_555
Sm1 O1 2.315(4) 5_555
Sm1 O1 2.281(4) 9_555
Sm1 O1 2.428(4) 14_545
Sm1 O1 2.315(4) 31_555
Sm1 O1 2.281(4) 36_555
Sm1 O1 2.428(4) 37_555
Sm1 O2 2.370(9) 1_555
Sm1 O2 2.370(9) 26_555
Ce2 O1 2.389(4) 28_555
Ce2 O1 2.389(4) 32_555
Ce2 O1 2.389(4) 36_555
Ce2 O1 2.389(4) 40_545
Ce2 O1 2.389(4) 44_455
Ce2 O1 2.389(4) 48_554
Ce2 O2 2.886(9) 1_555
Ce2 O2 2.886(9) 13_555
Sm2 O1 2.389(4) 28_555
Sm2 O1 2.389(4) 32_555
Sm2 O1 2.389(4) 36_555
Sm2 O1 2.389(4) 40_545
Sm2 O1 2.389(4) 44_455
Sm2 O1 2.389(4) 48_554
Sm2 O2 2.886(9) 1_555
Sm2 O2 2.886(9) 13_555
O1 Ce1 2.281(4) 5_555
O1 Ce1 2.315(4) 9_555
O1 Ce1 2.428(4) 14_555
O1 Sm1 2.281(4) 5_555
O1 Sm1 2.315(4) 9_555
O1 Sm1 2.428(4) 14_555
O1 Ce2 2.389(4) 28_555
O1 Sm2 2.389(4) 28_555
O1 O1 2.986(5) 19_555
O1 O1 2.986(6) 22_554
O1 O1 2.923(6) 41_555
O1 O1 2.923(5) 45_555
O1 O2 2.326(9) 1_555
O1 O2 2.840(9) 28_555
O2 Ce1 2.370(9) 1_555
O2 Ce1 2.370(9) 5_555
O2 Ce1 2.370(9) 9_555
O2 Sm1 2.370(9) 1_555
O2 Sm1 2.370(9) 5_555
O2 Sm1 2.370(9) 9_555
O2 Ce2 2.886(9) 1_555
O2 Sm2 2.886(9) 1_555
O2 O1 2.326(9) 1_555
O2 O1 2.326(9) 5_555
O2 O1 2.326(10) 9_555
O2 O1 2.840(9) 28_555
O2 O1 2.840(10) 32_555
O2 O1 2.840(9) 36_555
