#------------------------------------------------------------------------------
#$Date: 2016-02-13 21:28:24 +0200 (Sat, 13 Feb 2016) $
#$Revision: 176429 $
#$URL: svn://www.crystallography.net/cod/cif/4/34/31/4343149.cif $
#------------------------------------------------------------------------------
#
# This file is available in the Crystallography Open Database (COD),
# http://www.crystallography.net/
#
# All data on this site have been placed in the public domain by the
# contributors.
#
data_4343149
loop_
_publ_author_name
'Artini, Cristina'
'Pani, Marcella'
'Carnasciali, Maria Maddalena'
'Buscaglia, Maria Teresa'
'Plaisier, Jasper Rikkert'
'Costa, Giorgio Andrea'
_publ_section_title
;
 Structural Features of Sm- and Gd-Doped Ceria Studied by Synchrotron
 X-ray Diffraction and \m-Raman Spectroscopy.
;
_journal_issue                   8
_journal_name_full               'Inorganic chemistry'
_journal_page_first              4126
_journal_page_last               4137
_journal_paper_doi               10.1021/acs.inorgchem.5b00395
_journal_volume                  54
_journal_year                    2015
_chemical_formula_sum            'Ce0.1 O1.55 Sm0.9'
_chemical_formula_weight         174.1270
_chemical_name_common            'Cerium samarium mixed oxide'
_space_group_IT_number           206
_symmetry_cell_setting           cubic
_symmetry_space_group_name_Hall  '-I 2b 2c 3'
_symmetry_space_group_name_H-M   'I a -3'
_cell_angle_alpha                90.00000
_cell_angle_beta                 90.00000
_cell_angle_gamma                90.00000
_cell_formula_units_Z            32
_cell_length_a                   10.93050(13)
_cell_length_b                   10.93050(13)
_cell_length_c                   10.93050(13)
_cell_measurement_temperature    298
_cell_volume                     1305.93(3)
_computing_structure_refinement  FULLPROF
_diffrn_ambient_temperature      298
_diffrn_detector                 'fast scintillator detector'
_diffrn_measurement_device_type  'Huber 4-axes X-ray diffractometer'
_diffrn_measurement_method       '2\q in the range 5-60 deg'
_diffrn_radiation_wavelength     0.74923
_diffrn_source                   synchrotron
_exptl_absorpt_coefficient_mu    46.14
_exptl_absorpt_correction_type   none
_pd_char_colour                  white
_pd_instr_location
; powder diffraction beamline (MCX) of the Elettra synchrotron radiation
 facility located in Trieste, Italy
;
_pd_meas_2theta_range_inc        0.010000
_pd_meas_2theta_range_max        60.00000
_pd_meas_2theta_range_min        9.00000
_pd_meas_number_of_points        5101
_pd_meas_scan_method             step
_pd_prep_pressure                101
_pd_prep_temperature             1473
_pd_proc_2theta_range_inc        0.010000
_pd_proc_2theta_range_max        60.0000
_pd_proc_2theta_range_min        9.0000
_pd_proc_ls_background_function
;
linear interpolation between a set of background points with refinable heights
;
_pd_proc_ls_profile_function     Pseudo-Voigt
_pd_proc_ls_prof_R_factor        8.9369
_pd_proc_ls_prof_wR_expected     8.3546
_pd_proc_ls_prof_wR_factor       11.6118
_pd_proc_wavelength              0.749230
_pd_spec_mounting
' quartz capillary tube with inner diameter of 0.5 mm '
_pd_spec_mount_mode              transmission
_pd_spec_shape                   cylinder
_pd_spec_size_axial              20
_pd_spec_size_equat              0.5
_refine_ls_goodness_of_fit_all   1.39
_refine_ls_number_parameters     106
_refine_ls_number_reflns         294
_refine_ls_number_restraints     0
_refine_ls_R_I_factor            4.4572
_refine_ls_shift/su_max          0.1
_cod_data_source_file            ic5b00395_si_002.cif
_cod_data_source_block           Sm90_1473
_cod_depositor_comments
;
The following automatic conversions were performed:

'_symmetry_cell_setting' value 'Cubic' changed to 'cubic' according
to
/usr/data/users/saulius/crontab/automatic-downloads/current/ACS/lib/dictionaries/cif_core.dic
dictionary named 'cif_core.dic' version 2.4.2 from 2011-04-26.

Automatic conversion script
Id: cif_fix_values 3271 2015-04-21 07:52:19Z andrius 
;
_cod_original_formula_sum        'Ce0.1  O1.55 Sm0.9'
_cod_database_code               4343149
#BEGIN Tags that were not found in dictionaries:
_pd_proc_ls_prof_cr_factor       20.0113
_pd_proc_ls_prof_cwr_factor      20.5887
_pd_proc_ls_prof_cwr_expected    14.8135
_pd_proc_ls_prof_chi2            1.9317
_pd_proc_ls_prof_echi2           1.9324
#END Tags that were not found in dictionaries
loop_
_symmetry_equiv_pos_as_xyz
x,y,z
x+1/2,-y+1/2,-z
-x,y+1/2,-z+1/2
-x+1/2,-y,z+1/2
y,z,x
-y+1/2,-z,x+1/2
y+1/2,-z+1/2,-x
-y,z+1/2,-x+1/2
z,x,y
-z,x+1/2,-y+1/2
-z+1/2,-x,y+1/2
z+1/2,-x+1/2,-y
-x,-y,-z
-x+1/2,y+1/2,z
x,-y+1/2,z+1/2
x+1/2,y,-z+1/2
-y,-z,-x
y+1/2,z,-x+1/2
-y+1/2,z+1/2,x
y,-z+1/2,x+1/2
-z,-x,-y
z,-x+1/2,y+1/2
z+1/2,x,-y+1/2
-z+1/2,x+1/2,y
x+1/2,y+1/2,z+1/2
x,-y,-z+1/2
-x+1/2,y,-z
-x,-y+1/2,z
y+1/2,z+1/2,x+1/2
-y,-z+1/2,x
y,-z,-x+1/2
-y+1/2,z,-x
z+1/2,x+1/2,y+1/2
-z+1/2,x,-y
-z,-x+1/2,y
z,-x,-y+1/2
-x+1/2,-y+1/2,-z+1/2
-x,y,z+1/2
x+1/2,-y,z
x,y+1/2,-z
-y+1/2,-z+1/2,-x+1/2
y,z+1/2,-x
-y,z,x+1/2
y+1/2,-z,x
-z+1/2,-x+1/2,-y+1/2
z+1/2,-x,y
z,x+1/2,-y
-z,x,y+1/2
loop_
_atom_site_label
_atom_site_fract_x
_atom_site_fract_y
_atom_site_fract_z
_atom_site_U_iso_or_equiv
_atom_site_occupancy
_atom_site_adp_type
_atom_site_type_symbol
Ce1 0.27638(12) 0.00000 0.25000 0.00000 0.10000 Uiso Ce
Sm1 0.27638(12) 0.00000 0.25000 0.00000 0.90000 Uiso Sm
Ce2 0.00000 0.00000 0.00000 0.00000 0.10000 Uiso Ce
Sm2 0.00000 0.00000 0.00000 0.00000 0.90000 Uiso Sm
O1 0.1032(16) 0.3571(16) 0.1280(18) 0.00000 1.00000 Uiso O
O2 0.160(5) 0.160(5) 0.160(5) 0.00000 0.31(5) Uiso O
loop_
_atom_type_symbol
_atom_type_scat_Cromer_Mann_a1
_atom_type_scat_Cromer_Mann_b1
_atom_type_scat_Cromer_Mann_a2
_atom_type_scat_Cromer_Mann_b2
_atom_type_scat_Cromer_Mann_a3
_atom_type_scat_Cromer_Mann_b3
_atom_type_scat_Cromer_Mann_a4
_atom_type_scat_Cromer_Mann_b4
_atom_type_scat_Cromer_Mann_c
_atom_type_scat_dispersion_real
_atom_type_scat_dispersion_imag
_atom_type_scat_source
ce 21.16710 2.81219 19.76950 0.22684 11.85130 17.60830 3.33049 127.11300
1.86264 -0.56400 2.63200
International_Tables_for_Crystallography_Vol.C(1991)_Tables_6.1.1.4_and_6.1.1.5
sm 24.00420 2.47274 19.42580 0.19645 13.43960 14.39960 2.89604 128.00700
2.20963 -0.53300 3.44200
International_Tables_for_Crystallography_Vol.C(1991)_Tables_6.1.1.4_and_6.1.1.5
o 3.04850 13.27710 2.28680 5.70110 1.54630 0.32390 0.86700 32.90890 0.25080
0.00800 0.00600
International_Tables_for_Crystallography_Vol.C(1991)_Tables_6.1.1.4_and_6.1.1.5
loop_
_geom_angle_atom_site_label_1
_geom_angle_atom_site_label_2
_geom_angle_atom_site_label_3
_geom_angle
_geom_angle_site_symmetry_1
_geom_angle_site_symmetry_3
O1 Ce1 O1 109.1(13) 5_555 9_555
O1 Ce1 O1 78.6(10) 5_555 14_545
O1 Ce1 O1 135.0(14) 5_555 31_555
O1 Ce1 O1 102.3(12) 5_555 36_555
O1 Ce1 O1 77.6(11) 5_555 37_555
O1 Ce1 O2 58.0(20) 5_555 1_555
O1 Ce1 O2 160(3) 5_555 26_555
O1 Ce1 O1 167.0(14) 9_555 14_545
O1 Ce1 O1 102.3(12) 9_555 31_555
O1 Ce1 O1 90.1(11) 9_555 36_555
O1 Ce1 O1 77.8(10) 9_555 37_555
O1 Ce1 O2 58.1(20) 9_555 1_555
O1 Ce1 O2 77(2) 9_555 26_555
O1 Ce1 O1 77.6(11) 14_545 31_555
O1 Ce1 O1 77.8(10) 14_545 36_555
O1 Ce1 O1 114.7(12) 14_545 37_555
O1 Ce1 O2 122(3) 14_545 1_555
O1 Ce1 O2 93(2) 14_545 26_555
O1 Ce1 O1 109.1(13) 31_555 36_555
O1 Ce1 O1 78.6(10) 31_555 37_555
O1 Ce1 O2 160(3) 31_555 1_555
O1 Ce1 O2 58.0(20) 31_555 26_555
O1 Ce1 O1 167.0(14) 36_555 37_555
O1 Ce1 O2 77(2) 36_555 1_555
O1 Ce1 O2 58.1(20) 36_555 26_555
O1 Ce1 O2 93(2) 37_555 1_555
O1 Ce1 O2 122(3) 37_555 26_555
O2 Ce1 O2 115(4) 1_555 26_555
O1 Sm1 O1 109.1(13) 5_555 9_555
O1 Sm1 O1 78.6(10) 5_555 14_545
O1 Sm1 O1 135.0(14) 5_555 31_555
O1 Sm1 O1 102.3(12) 5_555 36_555
O1 Sm1 O1 77.6(11) 5_555 37_555
O1 Sm1 O2 58.0(20) 5_555 1_555
O1 Sm1 O2 160(3) 5_555 26_555
O1 Sm1 O1 167.0(14) 9_555 14_545
O1 Sm1 O1 102.3(12) 9_555 31_555
O1 Sm1 O1 90.1(11) 9_555 36_555
O1 Sm1 O1 77.8(10) 9_555 37_555
O1 Sm1 O2 58.1(20) 9_555 1_555
O1 Sm1 O2 77(2) 9_555 26_555
O1 Sm1 O1 77.6(11) 14_545 31_555
O1 Sm1 O1 77.8(10) 14_545 36_555
O1 Sm1 O1 114.7(12) 14_545 37_555
O1 Sm1 O2 122(3) 14_545 1_555
O1 Sm1 O2 93(2) 14_545 26_555
O1 Sm1 O1 109.1(13) 31_555 36_555
O1 Sm1 O1 78.6(10) 31_555 37_555
O1 Sm1 O2 160(3) 31_555 1_555
O1 Sm1 O2 58.0(20) 31_555 26_555
O1 Sm1 O1 167.0(14) 36_555 37_555
O1 Sm1 O2 77(2) 36_555 1_555
O1 Sm1 O2 58.1(20) 36_555 26_555
O1 Sm1 O2 93(2) 37_555 1_555
O1 Sm1 O2 122(3) 37_555 26_555
O2 Sm1 O2 115(4) 1_555 26_555
O1 Ce2 O1 101.8(12) 28_555 32_555
O1 Ce2 O1 101.8(11) 28_555 36_555
O1 Ce2 O1 180.0(14) 28_555 40_545
O1 Ce2 O1 78.2(10) 28_555 44_455
O1 Ce2 O1 78.2(10) 28_555 48_554
O1 Ce2 O2 63.6(17) 28_555 1_555
O1 Ce2 O2 116(2) 28_555 13_555
O1 Ce2 O1 101.8(12) 32_555 36_555
O1 Ce2 O1 78.2(10) 32_555 40_545
O1 Ce2 O1 180.0(14) 32_555 44_455
O1 Ce2 O1 78.2(10) 32_555 48_554
O1 Ce2 O2 63.6(17) 32_555 1_555
O1 Ce2 O2 116(2) 32_555 13_555
O1 Ce2 O1 78.2(10) 36_555 40_545
O1 Ce2 O1 78.2(10) 36_555 44_455
O1 Ce2 O1 180.0(14) 36_555 48_554
O1 Ce2 O2 63.6(17) 36_555 1_555
O1 Ce2 O2 116(2) 36_555 13_555
O1 Ce2 O1 101.8(12) 40_545 44_455
O1 Ce2 O1 101.8(11) 40_545 48_554
O1 Ce2 O2 116(2) 40_545 1_555
O1 Ce2 O2 63.6(17) 40_545 13_555
O1 Ce2 O1 101.8(12) 44_455 48_554
O1 Ce2 O2 116(2) 44_455 1_555
O1 Ce2 O2 63.6(17) 44_455 13_555
O1 Ce2 O2 116(2) 48_554 1_555
O1 Ce2 O2 63.6(17) 48_554 13_555
O2 Ce2 O2 180(3) 1_555 13_555
O1 Sm2 O1 101.8(12) 28_555 32_555
O1 Sm2 O1 101.8(11) 28_555 36_555
O1 Sm2 O1 180.0(14) 28_555 40_545
O1 Sm2 O1 78.2(10) 28_555 44_455
O1 Sm2 O1 78.2(10) 28_555 48_554
O1 Sm2 O2 63.6(17) 28_555 1_555
O1 Sm2 O2 116(2) 28_555 13_555
O1 Sm2 O1 101.8(12) 32_555 36_555
O1 Sm2 O1 78.2(10) 32_555 40_545
O1 Sm2 O1 180.0(14) 32_555 44_455
O1 Sm2 O1 78.2(10) 32_555 48_554
O1 Sm2 O2 63.6(17) 32_555 1_555
O1 Sm2 O2 116(2) 32_555 13_555
O1 Sm2 O1 78.2(10) 36_555 40_545
O1 Sm2 O1 78.2(10) 36_555 44_455
O1 Sm2 O1 180.0(14) 36_555 48_554
O1 Sm2 O2 63.6(17) 36_555 1_555
O1 Sm2 O2 116(2) 36_555 13_555
O1 Sm2 O1 101.8(12) 40_545 44_455
O1 Sm2 O1 101.8(11) 40_545 48_554
O1 Sm2 O2 116(2) 40_545 1_555
O1 Sm2 O2 63.6(17) 40_545 13_555
O1 Sm2 O1 101.8(12) 44_455 48_554
O1 Sm2 O2 116(2) 44_455 1_555
O1 Sm2 O2 63.6(17) 44_455 13_555
O1 Sm2 O2 116(2) 48_554 1_555
O1 Sm2 O2 63.6(17) 48_554 13_555
O2 Sm2 O2 180(3) 1_555 13_555
Ce1 O1 Ce1 125.1(7) 5_555 9_555
Ce1 O1 Ce1 101.9(6) 5_555 14_555
Ce1 O1 Sm1 125.1(7) 5_555 9_555
Ce1 O1 Sm1 101.9(6) 5_555 14_555
Ce1 O1 Ce2 121.1(6) 5_555 28_555
Ce1 O1 Sm2 121.1(6) 5_555 28_555
Ce1 O1 O1 129.6(10) 5_555 19_555
Ce1 O1 O1 144.5(11) 5_555 22_554
Ce1 O1 O1 53.3(8) 5_555 41_555
Ce1 O1 O1 121.4(10) 5_555 45_555
Ce1 O1 O2 63(2) 5_555 1_555
Ce1 O1 O2 52.8(17) 5_555 28_555
Ce1 O1 Ce1 101.6(6) 9_555 14_555
Ce1 O1 Sm1 125.1(7) 9_555 5_555
Ce1 O1 Sm1 101.6(6) 9_555 14_555
Ce1 O1 Ce2 103.0(6) 9_555 28_555
Ce1 O1 Sm2 103.0(6) 9_555 28_555
Ce1 O1 O1 102.8(9) 9_555 19_555
Ce1 O1 O1 52.7(8) 9_555 22_554
Ce1 O1 O1 121.3(10) 9_555 41_555
Ce1 O1 O1 53.2(8) 9_555 45_555
Ce1 O1 O2 63(2) 9_555 1_555
Ce1 O1 O2 138(3) 9_555 28_555
Ce1 O1 Sm1 101.9(6) 14_555 5_555
Ce1 O1 Sm1 101.6(6) 14_555 9_555
Ce1 O1 Ce2 99.0(6) 14_555 28_555
Ce1 O1 Sm2 99.0(6) 14_555 28_555
Ce1 O1 O1 48.7(7) 14_555 19_555
Ce1 O1 O1 113.4(10) 14_555 22_554
Ce1 O1 O1 49.2(8) 14_555 41_555
Ce1 O1 O1 49.0(7) 14_555 45_555
Ce1 O1 O2 112(3) 14_555 1_555
Ce1 O1 O2 121(2) 14_555 28_555
Sm1 O1 Sm1 125.1(7) 5_555 9_555
Sm1 O1 Sm1 101.9(6) 5_555 14_555
Sm1 O1 Ce2 121.1(6) 5_555 28_555
Sm1 O1 Sm2 121.1(6) 5_555 28_555
Sm1 O1 O1 129.6(10) 5_555 19_555
Sm1 O1 O1 144.5(11) 5_555 22_554
Sm1 O1 O1 53.3(8) 5_555 41_555
Sm1 O1 O1 121.4(10) 5_555 45_555
Sm1 O1 O2 63(2) 5_555 1_555
Sm1 O1 O2 52.8(17) 5_555 28_555
Sm1 O1 Sm1 101.6(6) 9_555 14_555
Sm1 O1 Ce2 103.0(6) 9_555 28_555
Sm1 O1 Sm2 103.0(6) 9_555 28_555
Sm1 O1 O1 102.8(9) 9_555 19_555
Sm1 O1 O1 52.7(8) 9_555 22_554
Sm1 O1 O1 121.3(10) 9_555 41_555
Sm1 O1 O1 53.2(8) 9_555 45_555
Sm1 O1 O2 63(2) 9_555 1_555
Sm1 O1 O2 138(3) 9_555 28_555
Sm1 O1 Ce2 99.0(6) 14_555 28_555
Sm1 O1 Sm2 99.0(6) 14_555 28_555
Sm1 O1 O1 48.7(7) 14_555 19_555
Sm1 O1 O1 113.4(10) 14_555 22_554
Sm1 O1 O1 49.2(8) 14_555 41_555
Sm1 O1 O1 49.0(7) 14_555 45_555
Sm1 O1 O2 112(3) 14_555 1_555
Sm1 O1 O2 121(2) 14_555 28_555
Ce2 O1 O1 50.9(7) 28_555 19_555
Ce2 O1 O1 50.9(8) 28_555 22_554
Ce2 O1 O1 127.9(10) 28_555 41_555
Ce2 O1 O1 113.9(9) 28_555 45_555
Ce2 O1 O2 147(3) 28_555 1_555
Ce2 O1 O2 69.1(18) 28_555 28_555
Sm2 O1 O1 50.9(7) 28_555 19_555
Sm2 O1 O1 50.9(8) 28_555 22_554
Sm2 O1 O1 127.9(10) 28_555 41_555
Sm2 O1 O1 113.9(9) 28_555 45_555
Sm2 O1 O2 147(3) 28_555 1_555
Sm2 O1 O2 69.1(18) 28_555 28_555
O1 O1 O1 75.9(9) 19_555 22_554
O1 O1 O1 90.8(10) 19_555 41_555
O1 O1 O1 73.7(9) 19_555 45_555
O1 O1 O2 155(3) 19_555 1_555
O1 O1 O2 103(2) 19_555 28_555
O1 O1 O1 162.2(13) 22_554 41_555
O1 O1 O1 86.8(10) 22_554 45_555
O1 O1 O2 105(3) 22_554 1_555
O1 O1 O2 103(2) 22_554 28_555
O1 O1 O1 78.1(10) 41_555 45_555
O1 O1 O2 82(2) 41_555 1_555
O1 O1 O2 92(2) 41_555 28_555
O1 O1 O2 82(2) 45_555 1_555
O1 O1 O2 169(3) 45_555 28_555
O2 O1 O2 101(3) 1_555 28_555
Ce1 O2 Ce1 118.5(19) 1_555 5_555
Ce1 O2 Ce1 118.5(19) 1_555 9_555
Ce1 O2 Sm1 118.5(19) 1_555 5_555
Ce1 O2 Sm1 118.5(19) 1_555 9_555
Ce1 O2 Ce2 97.1(17) 1_555 1_555
Ce1 O2 Sm2 97.1(17) 1_555 1_555
Ce1 O2 O1 155(2) 1_555 1_555
Ce1 O2 O1 59(2) 1_555 5_555
Ce1 O2 O1 59(2) 1_555 9_555
Ce1 O2 O1 122.2(19) 1_555 28_555
Ce1 O2 O1 110.9(19) 1_555 32_555
Ce1 O2 O1 50.4(18) 1_555 36_555
Ce1 O2 Ce1 118.5(19) 5_555 9_555
Ce1 O2 Sm1 118.5(19) 5_555 1_555
Ce1 O2 Sm1 118.5(19) 5_555 9_555
Ce1 O2 Ce2 97.1(17) 5_555 1_555
Ce1 O2 Sm2 97.1(17) 5_555 1_555
Ce1 O2 O1 59(2) 5_555 1_555
Ce1 O2 O1 155(2) 5_555 5_555
Ce1 O2 O1 59(2) 5_555 9_555
Ce1 O2 O1 50.4(18) 5_555 28_555
Ce1 O2 O1 122.2(19) 5_555 32_555
Ce1 O2 O1 110.9(19) 5_555 36_555
Ce1 O2 Sm1 118.5(19) 9_555 1_555
Ce1 O2 Sm1 118.5(19) 9_555 5_555
Ce1 O2 Ce2 97.1(17) 9_555 1_555
Ce1 O2 Sm2 97.1(17) 9_555 1_555
Ce1 O2 O1 59(2) 9_555 1_555
Ce1 O2 O1 59(2) 9_555 5_555
Ce1 O2 O1 155(2) 9_555 9_555
Ce1 O2 O1 110.9(19) 9_555 28_555
Ce1 O2 O1 50.4(18) 9_555 32_555
Ce1 O2 O1 122.2(19) 9_555 36_555
Sm1 O2 Sm1 118.5(19) 1_555 5_555
Sm1 O2 Sm1 118.5(19) 1_555 9_555
Sm1 O2 Ce2 97.1(17) 1_555 1_555
Sm1 O2 Sm2 97.1(17) 1_555 1_555
Sm1 O2 O1 155(2) 1_555 1_555
Sm1 O2 O1 59(2) 1_555 5_555
Sm1 O2 O1 59(2) 1_555 9_555
Sm1 O2 O1 122.2(19) 1_555 28_555
Sm1 O2 O1 110.9(19) 1_555 32_555
Sm1 O2 O1 50.4(18) 1_555 36_555
Sm1 O2 Sm1 118.5(19) 5_555 9_555
Sm1 O2 Ce2 97.1(17) 5_555 1_555
Sm1 O2 Sm2 97.1(17) 5_555 1_555
Sm1 O2 O1 59(2) 5_555 1_555
Sm1 O2 O1 155(2) 5_555 5_555
Sm1 O2 O1 59(2) 5_555 9_555
Sm1 O2 O1 50.4(18) 5_555 28_555
Sm1 O2 O1 122.2(19) 5_555 32_555
Sm1 O2 O1 110.9(19) 5_555 36_555
Sm1 O2 Ce2 97.1(17) 9_555 1_555
Sm1 O2 Sm2 97.1(17) 9_555 1_555
Sm1 O2 O1 59(2) 9_555 1_555
Sm1 O2 O1 59(2) 9_555 5_555
Sm1 O2 O1 155(2) 9_555 9_555
Sm1 O2 O1 110.9(19) 9_555 28_555
Sm1 O2 O1 50.4(18) 9_555 32_555
Sm1 O2 O1 122.2(19) 9_555 36_555
Ce2 O2 O1 107.5(19) 1_555 1_555
Ce2 O2 O1 107.5(19) 1_555 5_555
Ce2 O2 O1 107.5(19) 1_555 9_555
Ce2 O2 O1 47.3(16) 1_555 28_555
Ce2 O2 O1 47.3(16) 1_555 32_555
Ce2 O2 O1 47.3(16) 1_555 36_555
Sm2 O2 O1 107.5(19) 1_555 1_555
Sm2 O2 O1 107.5(19) 1_555 5_555
Sm2 O2 O1 107.5(19) 1_555 9_555
Sm2 O2 O1 47.3(16) 1_555 28_555
Sm2 O2 O1 47.3(16) 1_555 32_555
Sm2 O2 O1 47.3(16) 1_555 36_555
O1 O2 O1 111(2) 1_555 5_555
O1 O2 O1 111(2) 1_555 9_555
O1 O2 O1 76.8(20) 1_555 28_555
O1 O2 O1 87(2) 1_555 32_555
O1 O2 O1 154(2) 1_555 36_555
O1 O2 O1 111(2) 5_555 9_555
O1 O2 O1 154(2) 5_555 28_555
O1 O2 O1 76.8(20) 5_555 32_555
O1 O2 O1 86.8(20) 5_555 36_555
O1 O2 O1 87(2) 9_555 28_555
O1 O2 O1 154(2) 9_555 32_555
O1 O2 O1 76.8(20) 9_555 36_555
O1 O2 O1 79.0(17) 28_555 32_555
O1 O2 O1 79.0(17) 28_555 36_555
O1 O2 O1 79.0(17) 32_555 36_555
loop_
_geom_bond_atom_site_label_1
_geom_bond_atom_site_label_2
_geom_bond_distance
_geom_bond_site_symmetry_2
Ce1 O1 2.304(19) 5_555
Ce1 O1 2.296(18) 9_555
Ce1 O1 2.439(18) 14_545
Ce1 O1 2.304(19) 31_555
Ce1 O1 2.296(18) 36_555
Ce1 O1 2.439(18) 37_555
Ce1 O2 2.38(5) 1_555
Ce1 O2 2.38(5) 26_555
Sm1 O1 2.304(19) 5_555
Sm1 O1 2.296(18) 9_555
Sm1 O1 2.439(18) 14_545
Sm1 O1 2.304(19) 31_555
Sm1 O1 2.296(18) 36_555
Sm1 O1 2.439(18) 37_555
Sm1 O2 2.38(5) 1_555
Sm1 O2 2.38(5) 26_555
Ce2 O1 2.381(18) 28_555
Ce2 O1 2.381(18) 32_555
Ce2 O1 2.381(18) 36_555
Ce2 O1 2.381(18) 40_545
Ce2 O1 2.381(18) 44_455
Ce2 O1 2.381(18) 48_554
Ce2 O2 3.03(5) 1_555
Ce2 O2 3.03(5) 13_555
Sm2 O1 2.381(18) 28_555
Sm2 O1 2.381(18) 32_555
Sm2 O1 2.381(18) 36_555
Sm2 O1 2.381(18) 40_545
Sm2 O1 2.381(18) 44_455
Sm2 O1 2.381(18) 48_554
Sm2 O2 3.03(5) 1_555
Sm2 O2 3.03(5) 13_555
O1 Ce1 2.296(19) 5_555
O1 Ce1 2.304(18) 9_555
O1 Ce1 2.439(18) 14_555
O1 Sm1 2.296(19) 5_555
O1 Sm1 2.304(18) 9_555
O1 Sm1 2.439(18) 14_555
O1 Ce2 2.381(18) 28_555
O1 Sm2 2.381(18) 28_555
O1 O1 3.00(2) 19_555
O1 O1 3.00(3) 22_554
O1 O1 2.97(3) 41_555
O1 O1 2.97(2) 45_555
O1 O2 2.27(6) 1_555
O1 O2 2.90(6) 28_555
O2 Ce1 2.38(5) 1_555
O2 Ce1 2.38(5) 5_555
O2 Ce1 2.38(5) 9_555
O2 Sm1 2.38(5) 1_555
O2 Sm1 2.38(5) 5_555
O2 Sm1 2.38(5) 9_555
O2 Ce2 3.03(5) 1_555
O2 Sm2 3.03(5) 1_555
O2 O1 2.27(6) 1_555
O2 O1 2.27(6) 5_555
O2 O1 2.27(6) 9_555
O2 O1 2.90(6) 28_555
O2 O1 2.90(6) 32_555
O2 O1 2.90(6) 36_555
