#------------------------------------------------------------------------------
#$Date: 2015-06-04 13:53:05 +0300 (Thu, 04 Jun 2015) $
#$Revision: 137918 $
#$URL: svn://www.crystallography.net/cod/cif/4/34/31/4343143.cif $
#------------------------------------------------------------------------------
#
# This file is available in the Crystallography Open Database (COD),
# http://www.crystallography.net/
#
# All data on this site have been placed in the public domain by the
# contributors.
#
data_4343143
loop_
_publ_author_name
'Artini, Cristina'
'Pani, Marcella'
'Carnasciali, Maria Maddalena'
'Buscaglia, Maria Teresa'
'Plaisier, Jasper Rikkert'
'Costa, Giorgio Andrea'
_publ_section_title
;
 Structural Features of Sm- and Gd-Doped Ceria Studied by Synchrotron
 X-ray Diffraction and \m-Raman Spectroscopy.
;
_journal_issue                   8
_journal_name_full               'Inorganic chemistry'
_journal_page_first              4126
_journal_page_last               4137
_journal_paper_doi               10.1021/acs.inorgchem.5b00395
_journal_volume                  54
_journal_year                    2015
_chemical_formula_sum            'Ce0.7 O1.85 Sm0.3'
_chemical_formula_weight         172.7890
_chemical_name_common            'Cerium samarium mixed oxide'
_space_group_IT_number           206
_symmetry_cell_setting           cubic
_symmetry_space_group_name_Hall  '-I 2b 2c 3'
_symmetry_space_group_name_H-M   'I a -3'
_cell_angle_alpha                90.00000
_cell_angle_beta                 90.00000
_cell_angle_gamma                90.00000
_cell_formula_units_Z            32
_cell_length_a                   10.88937(7)
_cell_length_b                   10.88937(7)
_cell_length_c                   10.88937(7)
_cell_measurement_temperature    295
_cell_volume                     1291.244(14)
_computing_structure_refinement  FULLPROF
_diffrn_ambient_temperature      295
_diffrn_detector                 'fast scintillator detector'
_diffrn_measurement_device_type  'Huber 4-axes X-ray diffractometer'
_diffrn_measurement_method       '2\q in the range 5-60 deg'
_diffrn_radiation_wavelength     0.74923
_diffrn_source                   synchrotron
_exptl_absorpt_coefficient_mu    40.22
_exptl_absorpt_correction_type   none
_pd_char_colour                  white
_pd_instr_location
; powder diffraction beamline (MCX) of the Elettra synchrotron radiation
 facility located in Trieste, Italy
;
_pd_meas_2theta_range_inc        0.010000
_pd_meas_2theta_range_max        60.00000
_pd_meas_2theta_range_min        9.00000
_pd_meas_number_of_points        5101
_pd_meas_scan_method             step
_pd_prep_pressure                101
_pd_prep_temperature             1473
_pd_proc_2theta_range_inc        0.01000
_pd_proc_2theta_range_max        60.0000
_pd_proc_2theta_range_min        9.0000
_pd_proc_ls_background_function
;
linear interpolation between a set of background points with refinable heights
;
_pd_proc_ls_profile_function     Pseudo-Voigt
_pd_proc_ls_prof_R_factor        9.2663
_pd_proc_ls_prof_wR_expected     8.5203
_pd_proc_ls_prof_wR_factor       12.3564
_pd_proc_wavelength              0.749230
_pd_spec_mounting
' quartz capillary tube with inner diameter of 0.5 mm '
_pd_spec_mount_mode              transmission
_pd_spec_shape                   cylinder
_pd_spec_size_axial              20
_pd_spec_size_equat              0.5
_refine_ls_goodness_of_fit_all   1.45
_refine_ls_number_parameters     86
_refine_ls_number_reflns         284
_refine_ls_number_restraints     0
_refine_ls_R_I_factor            2.7065
_refine_ls_shift/su_max          0.1
_cod_data_source_file            ic5b00395_si_002.cif
_cod_data_source_block           Sm30_1473
_cod_depositor_comments
;
The following automatic conversions were performed:

'_symmetry_cell_setting' value 'Cubic' changed to 'cubic' according
to
/usr/data/users/saulius/crontab/automatic-downloads/current/ACS/lib/dictionaries/cif_core.dic
dictionary named 'cif_core.dic' version 2.4.2 from 2011-04-26.

Automatic conversion script
Id: cif_fix_values 3271 2015-04-21 07:52:19Z andrius 
;
_cod_original_cell_volume        1291.242(14)
_cod_database_code               4343143
_pd_proc_ls_prof_cr_factor       19.8750
_pd_proc_ls_prof_cwr_factor      19.0308
_pd_proc_ls_prof_cwr_expected    13.1226
_pd_proc_ls_prof_chi2            2.1032
_pd_proc_ls_prof_echi2           2.1774
loop_
_symmetry_equiv_pos_as_xyz
x,y,z
x+1/2,-y+1/2,-z
-x,y+1/2,-z+1/2
-x+1/2,-y,z+1/2
y,z,x
-y+1/2,-z,x+1/2
y+1/2,-z+1/2,-x
-y,z+1/2,-x+1/2
z,x,y
-z,x+1/2,-y+1/2
-z+1/2,-x,y+1/2
z+1/2,-x+1/2,-y
-x,-y,-z
-x+1/2,y+1/2,z
x,-y+1/2,z+1/2
x+1/2,y,-z+1/2
-y,-z,-x
y+1/2,z,-x+1/2
-y+1/2,z+1/2,x
y,-z+1/2,x+1/2
-z,-x,-y
z,-x+1/2,y+1/2
z+1/2,x,-y+1/2
-z+1/2,x+1/2,y
x+1/2,y+1/2,z+1/2
x,-y,-z+1/2
-x+1/2,y,-z
-x,-y+1/2,z
y+1/2,z+1/2,x+1/2
-y,-z+1/2,x
y,-z,-x+1/2
-y+1/2,z,-x
z+1/2,x+1/2,y+1/2
-z+1/2,x,-y
-z,-x+1/2,y
z,-x,-y+1/2
-x+1/2,-y+1/2,-z+1/2
-x,y,z+1/2
x+1/2,-y,z
x,y+1/2,-z
-y+1/2,-z+1/2,-x+1/2
y,z+1/2,-x
-y,z,x+1/2
y+1/2,-z,x
-z+1/2,-x+1/2,-y+1/2
z+1/2,-x,y
z,x+1/2,-y
-z,x,y+1/2
loop_
_atom_site_label
_atom_site_fract_x
_atom_site_fract_y
_atom_site_fract_z
_atom_site_U_iso_or_equiv
_atom_site_occupancy
_atom_site_adp_type
_atom_site_type_symbol
Ce1 0.2492(12) 0.00000 0.25000 0.0007731(6) 0.70000 Uiso Ce
Sm1 0.2492(12) 0.00000 0.25000 0.0007731(6) 0.30000 Uiso Sm
Ce2 0.00000 0.00000 0.00000 0.0043(4) 0.70000 Uiso Ce
Sm2 0.00000 0.00000 0.00000 0.0043(4) 0.30000 Uiso Sm
O1 0.129(3) 0.383(3) 0.127(6) 0.0121(13) 1.00000 Uiso O
O2 0.128(6) 0.128(6) 0.128(6) 0.0121(13) 0.92658 Uiso O
loop_
_atom_type_symbol
_atom_type_scat_Cromer_Mann_a1
_atom_type_scat_Cromer_Mann_b1
_atom_type_scat_Cromer_Mann_a2
_atom_type_scat_Cromer_Mann_b2
_atom_type_scat_Cromer_Mann_a3
_atom_type_scat_Cromer_Mann_b3
_atom_type_scat_Cromer_Mann_a4
_atom_type_scat_Cromer_Mann_b4
_atom_type_scat_Cromer_Mann_c
_atom_type_scat_dispersion_real
_atom_type_scat_dispersion_imag
_atom_type_scat_source
ce 21.16710 2.81219 19.76950 0.22684 11.85130 17.60830 3.33049 127.11300
1.86264 -0.56400 2.63200
International_Tables_for_Crystallography_Vol.C(1991)_Tables_6.1.1.4_and_6.1.1.5
sm 24.00420 2.47274 19.42580 0.19645 13.43960 14.39960 2.89604 128.00700
2.20963 -0.53300 3.44200
International_Tables_for_Crystallography_Vol.C(1991)_Tables_6.1.1.4_and_6.1.1.5
o 3.04850 13.27710 2.28680 5.70110 1.54630 0.32390 0.86700 32.90890 0.25080
0.00800 0.00600
International_Tables_for_Crystallography_Vol.C(1991)_Tables_6.1.1.4_and_6.1.1.5
loop_
_geom_angle_atom_site_label_1
_geom_angle_atom_site_label_2
_geom_angle_atom_site_label_3
_geom_angle
_geom_angle_site_symmetry_1
_geom_angle_site_symmetry_3
O1 Ce1 O1 109(3) 5_555 9_555
O1 Ce1 O1 69(2) 5_555 14_545
O1 Ce1 O1 106(3) 5_555 31_555
O1 Ce1 O1 110(2) 5_555 36_555
O1 Ce1 O1 69(3) 5_555 37_555
O1 Ce1 O2 71(3) 5_555 1_555
O1 Ce1 O2 177(4) 5_555 26_555
O1 Ce1 O1 178(4) 9_555 14_545
O1 Ce1 O1 110(2) 9_555 31_555
O1 Ce1 O1 113(3) 9_555 36_555
O1 Ce1 O1 69(2) 9_555 37_555
O1 Ce1 O2 71(3) 9_555 1_555
O1 Ce1 O2 72(3) 9_555 26_555
O1 Ce1 O1 69(3) 14_545 31_555
O1 Ce1 O1 69(2) 14_545 36_555
O1 Ce1 O1 108(3) 14_545 37_555
O1 Ce1 O2 110(4) 14_545 1_555
O1 Ce1 O2 109(4) 14_545 26_555
O1 Ce1 O1 109(3) 31_555 36_555
O1 Ce1 O1 69(2) 31_555 37_555
O1 Ce1 O2 177(4) 31_555 1_555
O1 Ce1 O2 71(3) 31_555 26_555
O1 Ce1 O1 178(4) 36_555 37_555
O1 Ce1 O2 72(3) 36_555 1_555
O1 Ce1 O2 71(3) 36_555 26_555
O1 Ce1 O2 109(4) 37_555 1_555
O1 Ce1 O2 110(4) 37_555 26_555
O2 Ce1 O2 112(4) 1_555 26_555
O1 Sm1 O1 109(3) 5_555 9_555
O1 Sm1 O1 69(2) 5_555 14_545
O1 Sm1 O1 106(3) 5_555 31_555
O1 Sm1 O1 110(2) 5_555 36_555
O1 Sm1 O1 69(3) 5_555 37_555
O1 Sm1 O2 71(3) 5_555 1_555
O1 Sm1 O2 177(4) 5_555 26_555
O1 Sm1 O1 178(4) 9_555 14_545
O1 Sm1 O1 110(2) 9_555 31_555
O1 Sm1 O1 113(3) 9_555 36_555
O1 Sm1 O1 69(2) 9_555 37_555
O1 Sm1 O2 71(3) 9_555 1_555
O1 Sm1 O2 72(3) 9_555 26_555
O1 Sm1 O1 69(3) 14_545 31_555
O1 Sm1 O1 69(2) 14_545 36_555
O1 Sm1 O1 108(3) 14_545 37_555
O1 Sm1 O2 110(4) 14_545 1_555
O1 Sm1 O2 109(4) 14_545 26_555
O1 Sm1 O1 109(3) 31_555 36_555
O1 Sm1 O1 69(2) 31_555 37_555
O1 Sm1 O2 177(4) 31_555 1_555
O1 Sm1 O2 71(3) 31_555 26_555
O1 Sm1 O1 178(4) 36_555 37_555
O1 Sm1 O2 72(3) 36_555 1_555
O1 Sm1 O2 71(3) 36_555 26_555
O1 Sm1 O2 109(4) 37_555 1_555
O1 Sm1 O2 110(4) 37_555 26_555
O2 Sm1 O2 112(4) 1_555 26_555
O1 Ce2 O1 111(3) 28_555 32_555
O1 Ce2 O1 111(2) 28_555 36_555
O1 Ce2 O1 180(4) 28_555 40_545
O1 Ce2 O1 69(2) 28_555 44_455
O1 Ce2 O1 69(3) 28_555 48_554
O1 Ce2 O2 72(3) 28_555 1_555
O1 Ce2 O2 108(4) 28_555 13_555
O1 Ce2 O1 111(3) 32_555 36_555
O1 Ce2 O1 69(2) 32_555 40_545
O1 Ce2 O1 180(4) 32_555 44_455
O1 Ce2 O1 69(2) 32_555 48_554
O1 Ce2 O2 72(3) 32_555 1_555
O1 Ce2 O2 108(3) 32_555 13_555
O1 Ce2 O1 69(3) 36_555 40_545
O1 Ce2 O1 69(2) 36_555 44_455
O1 Ce2 O1 180(3) 36_555 48_554
O1 Ce2 O2 72(3) 36_555 1_555
O1 Ce2 O2 108(4) 36_555 13_555
O1 Ce2 O1 111(3) 40_545 44_455
O1 Ce2 O1 111(2) 40_545 48_554
O1 Ce2 O2 108(4) 40_545 1_555
O1 Ce2 O2 72(3) 40_545 13_555
O1 Ce2 O1 111(3) 44_455 48_554
O1 Ce2 O2 108(3) 44_455 1_555
O1 Ce2 O2 72(3) 44_455 13_555
O1 Ce2 O2 108(4) 48_554 1_555
O1 Ce2 O2 72(3) 48_554 13_555
O2 Ce2 O2 180(5) 1_555 13_555
O1 Sm2 O1 111(3) 28_555 32_555
O1 Sm2 O1 111(2) 28_555 36_555
O1 Sm2 O1 180(4) 28_555 40_545
O1 Sm2 O1 69(2) 28_555 44_455
O1 Sm2 O1 69(3) 28_555 48_554
O1 Sm2 O2 72(3) 28_555 1_555
O1 Sm2 O2 108(4) 28_555 13_555
O1 Sm2 O1 111(3) 32_555 36_555
O1 Sm2 O1 69(2) 32_555 40_545
O1 Sm2 O1 180(4) 32_555 44_455
O1 Sm2 O1 69(2) 32_555 48_554
O1 Sm2 O2 72(3) 32_555 1_555
O1 Sm2 O2 108(3) 32_555 13_555
O1 Sm2 O1 69(3) 36_555 40_545
O1 Sm2 O1 69(2) 36_555 44_455
O1 Sm2 O1 180(3) 36_555 48_554
O1 Sm2 O2 72(3) 36_555 1_555
O1 Sm2 O2 108(4) 36_555 13_555
O1 Sm2 O1 111(3) 40_545 44_455
O1 Sm2 O1 111(2) 40_545 48_554
O1 Sm2 O2 108(4) 40_545 1_555
O1 Sm2 O2 72(3) 40_545 13_555
O1 Sm2 O1 111(3) 44_455 48_554
O1 Sm2 O2 108(3) 44_455 1_555
O1 Sm2 O2 72(3) 44_455 13_555
O1 Sm2 O2 108(4) 48_554 1_555
O1 Sm2 O2 72(3) 48_554 13_555
O2 Sm2 O2 180(5) 1_555 13_555
Ce1 O1 Ce1 105.8(16) 5_555 9_555
Ce1 O1 Ce1 110.5(17) 5_555 14_555
Ce1 O1 Sm1 105.8(16) 5_555 9_555
Ce1 O1 Sm1 110.5(17) 5_555 14_555
Ce1 O1 Ce2 108.0(16) 5_555 28_555
Ce1 O1 Sm2 108.0(16) 5_555 28_555
Ce1 O1 O1 125(2) 5_555 19_555
Ce1 O1 O1 121(3) 5_555 22_554
Ce1 O1 O1 53(2) 5_555 41_555
Ce1 O1 O1 125(2) 5_555 45_555
Ce1 O1 O2 53(2) 5_555 1_555
Ce1 O1 O2 52(2) 5_555 28_555
Ce1 O1 Ce1 110.6(16) 9_555 14_555
Ce1 O1 Sm1 105.8(16) 9_555 5_555
Ce1 O1 Sm1 110.6(16) 9_555 14_555
Ce1 O1 Ce2 108.6(16) 9_555 28_555
Ce1 O1 Sm2 108.6(16) 9_555 28_555
Ce1 O1 O1 129(2) 9_555 19_555
Ce1 O1 O1 53(2) 9_555 22_554
Ce1 O1 O1 125(3) 9_555 41_555
Ce1 O1 O1 53.1(18) 9_555 45_555
Ce1 O1 O2 53(2) 9_555 1_555
Ce1 O1 O2 122(3) 9_555 28_555
Ce1 O1 Sm1 110.5(17) 14_555 5_555
Ce1 O1 Sm1 110.6(16) 14_555 9_555
Ce1 O1 Ce2 113.1(17) 14_555 28_555
Ce1 O1 Sm2 113.1(17) 14_555 28_555
Ce1 O1 O1 57.7(19) 14_555 19_555
Ce1 O1 O1 128(3) 14_555 22_554
Ce1 O1 O1 58(3) 14_555 41_555
Ce1 O1 O1 57.6(19) 14_555 45_555
Ce1 O1 O2 123(3) 14_555 1_555
Ce1 O1 O2 127(3) 14_555 28_555
Sm1 O1 Sm1 105.8(16) 5_555 9_555
Sm1 O1 Sm1 110.5(17) 5_555 14_555
Sm1 O1 Ce2 108.0(16) 5_555 28_555
Sm1 O1 Sm2 108.0(16) 5_555 28_555
Sm1 O1 O1 125(2) 5_555 19_555
Sm1 O1 O1 121(3) 5_555 22_554
Sm1 O1 O1 53(2) 5_555 41_555
Sm1 O1 O1 125(2) 5_555 45_555
Sm1 O1 O2 53(2) 5_555 1_555
Sm1 O1 O2 52(2) 5_555 28_555
Sm1 O1 Sm1 110.6(16) 9_555 14_555
Sm1 O1 Ce2 108.6(16) 9_555 28_555
Sm1 O1 Sm2 108.6(16) 9_555 28_555
Sm1 O1 O1 129(2) 9_555 19_555
Sm1 O1 O1 53(2) 9_555 22_554
Sm1 O1 O1 125(3) 9_555 41_555
Sm1 O1 O1 53.1(18) 9_555 45_555
Sm1 O1 O2 53(2) 9_555 1_555
Sm1 O1 O2 122(3) 9_555 28_555
Sm1 O1 Ce2 113.1(17) 14_555 28_555
Sm1 O1 Sm2 113.1(17) 14_555 28_555
Sm1 O1 O1 57.7(19) 14_555 19_555
Sm1 O1 O1 128(3) 14_555 22_554
Sm1 O1 O1 58(3) 14_555 41_555
Sm1 O1 O1 57.6(19) 14_555 45_555
Sm1 O1 O2 123(3) 14_555 1_555
Sm1 O1 O2 127(3) 14_555 28_555
Ce2 O1 O1 55.4(18) 28_555 19_555
Ce2 O1 O1 55(2) 28_555 22_554
Ce2 O1 O1 126(3) 28_555 41_555
Ce2 O1 O1 126(2) 28_555 45_555
Ce2 O1 O2 123(3) 28_555 1_555
Ce2 O1 O2 56(2) 28_555 28_555
Sm2 O1 O1 55.4(18) 28_555 19_555
Sm2 O1 O1 55(2) 28_555 22_554
Sm2 O1 O1 126(3) 28_555 41_555
Sm2 O1 O1 126(2) 28_555 45_555
Sm2 O1 O2 123(3) 28_555 1_555
Sm2 O1 O2 56(2) 28_555 28_555
O1 O1 O1 93(3) 19_555 22_554
O1 O1 O1 92(3) 19_555 41_555
O1 O1 O1 95(2) 19_555 45_555
O1 O1 O2 178(4) 19_555 1_555
O1 O1 O2 90(3) 19_555 28_555
O1 O1 O1 174(5) 22_554 41_555
O1 O1 O1 88(3) 22_554 45_555
O1 O1 O2 88(3) 22_554 1_555
O1 O1 O2 90(4) 22_554 28_555
O1 O1 O1 95(3) 41_555 45_555
O1 O1 O2 87(3) 41_555 1_555
O1 O1 O2 87(3) 41_555 28_555
O1 O1 O2 87(3) 45_555 1_555
O1 O1 O2 174(4) 45_555 28_555
O2 O1 O2 88(3) 1_555 28_555
Ce1 O2 Ce1 111(2) 1_555 5_555
Ce1 O2 Ce1 111(2) 1_555 9_555
Ce1 O2 Sm1 111(2) 1_555 5_555
Ce1 O2 Sm1 111(2) 1_555 9_555
Ce1 O2 Ce2 108(2) 1_555 1_555
Ce1 O2 Sm2 108(2) 1_555 1_555
Ce1 O2 O1 128(3) 1_555 1_555
Ce1 O2 O1 56(2) 1_555 5_555
Ce1 O2 O1 56(3) 1_555 9_555
Ce1 O2 O1 123(3) 1_555 28_555
Ce1 O2 O1 126(3) 1_555 32_555
Ce1 O2 O1 55(2) 1_555 36_555
Ce1 O2 Ce1 111(2) 5_555 9_555
Ce1 O2 Sm1 111(2) 5_555 1_555
Ce1 O2 Sm1 111(2) 5_555 9_555
Ce1 O2 Ce2 108(2) 5_555 1_555
Ce1 O2 Sm2 108(2) 5_555 1_555
Ce1 O2 O1 56(2) 5_555 1_555
Ce1 O2 O1 128(3) 5_555 5_555
Ce1 O2 O1 56(3) 5_555 9_555
Ce1 O2 O1 55(2) 5_555 28_555
Ce1 O2 O1 123(3) 5_555 32_555
Ce1 O2 O1 126(3) 5_555 36_555
Ce1 O2 Sm1 111(2) 9_555 1_555
Ce1 O2 Sm1 111(2) 9_555 5_555
Ce1 O2 Ce2 108(2) 9_555 1_555
Ce1 O2 Sm2 108(2) 9_555 1_555
Ce1 O2 O1 56(2) 9_555 1_555
Ce1 O2 O1 56(2) 9_555 5_555
Ce1 O2 O1 128(4) 9_555 9_555
Ce1 O2 O1 126(3) 9_555 28_555
Ce1 O2 O1 55(3) 9_555 32_555
Ce1 O2 O1 123(3) 9_555 36_555
Sm1 O2 Sm1 111(2) 1_555 5_555
Sm1 O2 Sm1 111(2) 1_555 9_555
Sm1 O2 Ce2 108(2) 1_555 1_555
Sm1 O2 Sm2 108(2) 1_555 1_555
Sm1 O2 O1 128(3) 1_555 1_555
Sm1 O2 O1 56(2) 1_555 5_555
Sm1 O2 O1 56(3) 1_555 9_555
Sm1 O2 O1 123(3) 1_555 28_555
Sm1 O2 O1 126(3) 1_555 32_555
Sm1 O2 O1 55(2) 1_555 36_555
Sm1 O2 Sm1 111(2) 5_555 9_555
Sm1 O2 Ce2 108(2) 5_555 1_555
Sm1 O2 Sm2 108(2) 5_555 1_555
Sm1 O2 O1 56(2) 5_555 1_555
Sm1 O2 O1 128(3) 5_555 5_555
Sm1 O2 O1 56(3) 5_555 9_555
Sm1 O2 O1 55(2) 5_555 28_555
Sm1 O2 O1 123(3) 5_555 32_555
Sm1 O2 O1 126(3) 5_555 36_555
Sm1 O2 Ce2 108(2) 9_555 1_555
Sm1 O2 Sm2 108(2) 9_555 1_555
Sm1 O2 O1 56(2) 9_555 1_555
Sm1 O2 O1 56(2) 9_555 5_555
Sm1 O2 O1 128(4) 9_555 9_555
Sm1 O2 O1 126(3) 9_555 28_555
Sm1 O2 O1 55(3) 9_555 32_555
Sm1 O2 O1 123(3) 9_555 36_555
Ce2 O2 O1 125(3) 1_555 1_555
Ce2 O2 O1 125(3) 1_555 5_555
Ce2 O2 O1 125(3) 1_555 9_555
Ce2 O2 O1 53(2) 1_555 28_555
Ce2 O2 O1 53(3) 1_555 32_555
Ce2 O2 O1 53(2) 1_555 36_555
Sm2 O2 O1 125(3) 1_555 1_555
Sm2 O2 O1 125(3) 1_555 5_555
Sm2 O2 O1 125(3) 1_555 9_555
Sm2 O2 O1 53(2) 1_555 28_555
Sm2 O2 O1 53(3) 1_555 32_555
Sm2 O2 O1 53(2) 1_555 36_555
O1 O2 O1 91(3) 1_555 5_555
O1 O2 O1 91(3) 1_555 9_555
O1 O2 O1 92(3) 1_555 28_555
O1 O2 O1 90(3) 1_555 32_555
O1 O2 O1 177(3) 1_555 36_555
O1 O2 O1 91(3) 5_555 9_555
O1 O2 O1 177(3) 5_555 28_555
O1 O2 O1 92(3) 5_555 32_555
O1 O2 O1 90(3) 5_555 36_555
O1 O2 O1 90(3) 9_555 28_555
O1 O2 O1 177(5) 9_555 32_555
O1 O2 O1 92(3) 9_555 36_555
O1 O2 O1 87(3) 28_555 32_555
O1 O2 O1 87(2) 28_555 36_555
O1 O2 O1 87(3) 32_555 36_555
loop_
_geom_bond_atom_site_label_1
_geom_bond_atom_site_label_2
_geom_bond_distance
_geom_bond_site_symmetry_2
Ce1 O1 2.41(5) 5_555
Ce1 O1 2.41(5) 9_555
Ce1 O1 2.28(5) 14_545
Ce1 O1 2.41(5) 31_555
Ce1 O1 2.41(5) 36_555
Ce1 O1 2.28(5) 37_555
Ce1 O2 2.33(7) 1_555
Ce1 O2 2.33(7) 26_555
Sm1 O1 2.41(5) 5_555
Sm1 O1 2.41(5) 9_555
Sm1 O1 2.28(5) 14_545
Sm1 O1 2.41(5) 31_555
Sm1 O1 2.41(5) 36_555
Sm1 O1 2.28(5) 37_555
Sm1 O2 2.33(7) 1_555
Sm1 O2 2.33(7) 26_555
Ce2 O1 2.34(5) 28_555
Ce2 O1 2.34(5) 32_555
Ce2 O1 2.34(4) 36_555
Ce2 O1 2.34(5) 40_545
Ce2 O1 2.34(5) 44_455
Ce2 O1 2.34(4) 48_554
Ce2 O2 2.43(7) 1_555
Ce2 O2 2.43(7) 13_555
Sm2 O1 2.34(5) 28_555
Sm2 O1 2.34(5) 32_555
Sm2 O1 2.34(4) 36_555
Sm2 O1 2.34(5) 40_545
Sm2 O1 2.34(5) 44_455
Sm2 O1 2.34(4) 48_554
Sm2 O2 2.43(7) 1_555
Sm2 O2 2.43(7) 13_555
O1 Ce1 2.41(5) 5_555
O1 Ce1 2.41(5) 9_555
O1 Ce1 2.28(5) 14_555
O1 Sm1 2.41(5) 5_555
O1 Sm1 2.41(5) 9_555
O1 Sm1 2.28(5) 14_555
O1 Ce2 2.34(5) 28_555
O1 Sm2 2.34(5) 28_555
O1 O1 2.66(5) 19_555
O1 O1 2.66(9) 22_554
O1 O1 2.67(9) 41_555
O1 O1 2.67(5) 45_555
O1 O2 2.77(7) 1_555
O1 O2 2.80(7) 28_555
O2 Ce1 2.33(7) 1_555
O2 Ce1 2.33(7) 5_555
O2 Ce1 2.33(7) 9_555
O2 Sm1 2.33(7) 1_555
O2 Sm1 2.33(7) 5_555
O2 Sm1 2.33(7) 9_555
O2 Ce2 2.43(7) 1_555
O2 Sm2 2.43(7) 1_555
O2 O1 2.77(7) 1_555
O2 O1 2.77(7) 5_555
O2 O1 2.77(9) 9_555
O2 O1 2.80(7) 28_555
O2 O1 2.80(9) 32_555
O2 O1 2.80(7) 36_555
