#------------------------------------------------------------------------------
#$Date: 2016-02-13 21:28:24 +0200 (Sat, 13 Feb 2016) $
#$Revision: 176429 $
#$URL: svn://www.crystallography.net/cod/cif/4/34/38/4343807.cif $
#------------------------------------------------------------------------------
#
# This file is available in the Crystallography Open Database (COD),
# http://www.crystallography.net/
#
# All data on this site have been placed in the public domain by the
# contributors.
#
data_4343807
loop_
_publ_author_name
'Adkin, J.J.'
'Hayward, M.A.'
_publ_section_title
;
 Room temperature antiferromagnetic order in the Mn(II) oxide 4H-Ba(0.5)
 Sr(0.5) Mn O(2-delta)
;
_journal_name_full               'Inorganic Chemistry'
_journal_page_first              10959
_journal_page_last               10964
_journal_volume                  47
_journal_year                    2008
_chemical_formula_sum            'Ba0.5 Mn O2.02 Sr0.5'
_chemical_name_systematic        '(Ba0.5 Sr0.5) Mn O2.02'
_space_group_IT_number           194
_symmetry_space_group_name_Hall  '-P 6c 2c'
_symmetry_space_group_name_H-M   'P 63/m m c'
_cell_angle_alpha                90
_cell_angle_beta                 90
_cell_angle_gamma                120
_cell_formula_units_Z            4
_cell_length_a                   5.7005
_cell_length_b                   5.7005
_cell_length_c                   9.3776
_cell_volume                     263.905
_citation_journal_id_ASTM        INOCAJ
_cod_data_source_file            Adkin_INOCAJ_2008_1622.cif
_cod_data_source_block           Ba0.5Mn1O2.02Sr0.5
_cod_original_cell_volume        263.9054
_cod_original_formula_sum        'Ba0.5 Mn1 O2.02 Sr0.5'
_cod_database_code               4343807
loop_
_symmetry_equiv_pos_as_xyz
x,y,z
x-y,x,z+1/2
-y,x-y,z
-x,-y,z+1/2
-x+y,-x,z
y,-x+y,z+1/2
-y,-x,-z+1/2
x-y,-y,-z
x,x-y,-z+1/2
y,x,-z
-x+y,y,-z+1/2
-x,-x+y,-z
-x,-y,-z
-x+y,-x,-z-1/2
y,-x+y,-z
x,y,-z-1/2
x-y,x,-z
-y,x-y,-z-1/2
y,x,z-1/2
-x+y,y,z
-x,-x+y,z-1/2
-y,-x,z
x-y,-y,z-1/2
x,x-y,z
loop_
_atom_site_label
_atom_site_type_symbol
_atom_site_fract_x
_atom_site_fract_y
_atom_site_fract_z
_atom_site_occupancy
_atom_site_U_iso_or_equiv
Sr2 Sr+2 0.3333 0.6667 0.25 0.67 0.0
Ba2 Ba+2 0.3333 0.6667 0.25 0.33 0.0
Mn1 Mn+2 0.3333 0.6667 0.6069 1 0.0
Ba1 Ba+2 0 0 0 0.67 0.0
O2 O-2 -0.177 -0.354 0.25 0.534 0.0
O1 O-2 0.5 0 0 0.813 0.0
Sr1 Sr+2 0 0 0 0.33 0.0
