#------------------------------------------------------------------------------
#$Date: 2019-10-28 05:25:22 +0200 (Mon, 28 Oct 2019) $
#$Revision: 219708 $
#$URL: file:///home/coder/svn-repositories/cod/cif/4/51/45/4514523.cif $
#------------------------------------------------------------------------------
#
# This file is available in the Crystallography Open Database (COD),
# http://www.crystallography.net/
#
# All data on this site have been placed in the public domain by the
# contributors.
#
data_4514523
loop_
_publ_author_name
'Xie, Yin'
'Jin, Yongcheng'
'Xiang, Lan'
_publ_section_title
;
 Tuning the Nanoarea Interfacial Properties for the Improved Performance
 of Li-Rich Polycrystalline Li-Mn-O Spinel.
;
_journal_issue                   16
_journal_name_full               'ACS applied materials &amp; interfaces'
_journal_page_first              14796
_journal_page_last               14802
_journal_paper_doi               10.1021/acsami.9b01651
_journal_volume                  11
_journal_year                    2019
_chemical_formula_sum            'Li Mn2 O4'
_space_group_IT_number           227
_space_group_name_Hall           'F 4d 2 3 -1d'
_space_group_name_H-M_alt        'F d -3 m :1'
_symmetry_cell_setting           cubic
_symmetry_Int_Tables_number      227
_symmetry_space_group_name_Hall  'F 4d 2 3 -1d'
_symmetry_space_group_name_H-M   'F d -3 m :1'
_cell_angle_alpha                90
_cell_angle_beta                 90
_cell_angle_gamma                90
_cell_formula_units_Z            8
_cell_length_a                   8.2262(14)
_cell_length_b                   8.2262(14)
_cell_length_c                   8.2262(14)
_cell_volume                     556.67(16)
_cod_data_source_file            am9b01651_si_003.cif
_cod_data_source_block           I
_cod_original_cell_volume        556.66(16)
_cod_original_sg_symbol_Hall     '-F 4abvw;2abvw;3'
_cod_original_sg_symbol_H-M      'F d -3 m'
_cod_original_formula_sum        'Li1 Mn2 O4'
_cod_database_code               4514523
loop_
_space_group_symop.magn_id
_space_group_symop_operation_xyz
1 x,y,z
2 -x,-y+1/2,z+1/2
3 -x+1/2,y+1/2,-z
4 x+1/2,-y,-z+1/2
5 z,x,y
6 z+1/2,-x,-y+1/2
7 -z,-x+1/2,y+1/2
8 -z+1/2,x+1/2,-y
9 y,z,x
10 -y+1/2,z+1/2,-x
11 y+1/2,-z,-x+1/2
12 -y,-z+1/2,x+1/2
13 y+3/4,x+1/4,-z+3/4
14 -y+1/4,-x+1/4,-z+1/4
15 y+1/4,-x+3/4,z+3/4
16 -y+3/4,x+3/4,z+1/4
17 x+3/4,z+1/4,-y+3/4
18 -x+3/4,z+3/4,y+1/4
19 -x+1/4,-z+1/4,-y+1/4
20 x+1/4,-z+3/4,y+3/4
21 z+3/4,y+1/4,-x+3/4
22 z+1/4,-y+3/4,x+3/4
23 -z+3/4,y+3/4,x+1/4
24 -z+1/4,-y+1/4,-x+1/4
25 -x+1/4,-y+1/4,-z+1/4
26 x+1/4,y+3/4,-z+3/4
27 x+3/4,-y+3/4,z+1/4
28 -x+3/4,y+1/4,z+3/4
29 -z+1/4,-x+1/4,-y+1/4
30 -z+3/4,x+1/4,y+3/4
31 z+1/4,x+3/4,-y+3/4
32 z+3/4,-x+3/4,y+1/4
33 -y+1/4,-z+1/4,-x+1/4
34 y+3/4,-z+3/4,x+1/4
35 -y+3/4,z+1/4,x+3/4
36 y+1/4,z+3/4,-x+3/4
37 -y+1/2,-x,z+1/2
38 y,x,z
39 -y,x+1/2,-z+1/2
40 y+1/2,-x+1/2,-z
41 -x+1/2,-z,y+1/2
42 x+1/2,-z+1/2,-y
43 x,z,y
44 -x,z+1/2,-y+1/2
45 -z+1/2,-y,x+1/2
46 -z,y+1/2,-x+1/2
47 z+1/2,-y+1/2,-x
48 z,y,x
49 x,y+1/2,z+1/2
50 -x,-y,z
51 -x+1/2,y,-z+1/2
52 x+1/2,-y+1/2,-z
53 z,x+1/2,y+1/2
54 z+1/2,-x+1/2,-y
55 -z,-x,y
56 -z+1/2,x,-y+1/2
57 y,z+1/2,x+1/2
58 -y+1/2,z,-x+1/2
59 y+1/2,-z+1/2,-x
60 -y,-z,x
61 y+3/4,x+3/4,-z+1/4
62 -y+1/4,-x+3/4,-z+3/4
63 y+1/4,-x+1/4,z+1/4
64 -y+3/4,x+1/4,z+3/4
65 x+3/4,z+3/4,-y+1/4
66 -x+3/4,z+1/4,y+3/4
67 -x+1/4,-z+3/4,-y+3/4
68 x+1/4,-z+1/4,y+1/4
69 z+3/4,y+3/4,-x+1/4
70 z+1/4,-y+1/4,x+1/4
71 -z+3/4,y+1/4,x+3/4
72 -z+1/4,-y+3/4,-x+3/4
73 -x+1/4,-y+3/4,-z+3/4
74 x+1/4,y+1/4,-z+1/4
75 x+3/4,-y+1/4,z+3/4
76 -x+3/4,y+3/4,z+1/4
77 -z+1/4,-x+3/4,-y+3/4
78 -z+3/4,x+3/4,y+1/4
79 z+1/4,x+1/4,-y+1/4
80 z+3/4,-x+1/4,y+3/4
81 -y+1/4,-z+3/4,-x+3/4
82 y+3/4,-z+1/4,x+3/4
83 -y+3/4,z+3/4,x+1/4
84 y+1/4,z+1/4,-x+1/4
85 -y+1/2,-x+1/2,z
86 y,x+1/2,z+1/2
87 -y,x,-z
88 y+1/2,-x,-z+1/2
89 -x+1/2,-z+1/2,y
90 x+1/2,-z,-y+1/2
91 x,z+1/2,y+1/2
92 -x,z,-y
93 -z+1/2,-y+1/2,x
94 -z,y,-x
95 z+1/2,-y,-x+1/2
96 z,y+1/2,x+1/2
97 x+1/2,y,z+1/2
98 -x+1/2,-y+1/2,z
99 -x,y+1/2,-z+1/2
100 x,-y,-z
101 z+1/2,x,y+1/2
102 z,-x,-y
103 -z+1/2,-x+1/2,y
104 -z,x+1/2,-y+1/2
105 y+1/2,z,x+1/2
106 -y,z+1/2,-x+1/2
107 y,-z,-x
108 -y+1/2,-z+1/2,x
109 y+1/4,x+1/4,-z+1/4
110 -y+3/4,-x+1/4,-z+3/4
111 y+3/4,-x+3/4,z+1/4
112 -y+1/4,x+3/4,z+3/4
113 x+1/4,z+1/4,-y+1/4
114 -x+1/4,z+3/4,y+3/4
115 -x+3/4,-z+1/4,-y+3/4
116 x+3/4,-z+3/4,y+1/4
117 z+1/4,y+1/4,-x+1/4
118 z+3/4,-y+3/4,x+1/4
119 -z+1/4,y+3/4,x+3/4
120 -z+3/4,-y+1/4,-x+3/4
121 -x+3/4,-y+1/4,-z+3/4
122 x+3/4,y+3/4,-z+1/4
123 x+1/4,-y+3/4,z+3/4
124 -x+1/4,y+1/4,z+1/4
125 -z+3/4,-x+1/4,-y+3/4
126 -z+1/4,x+1/4,y+1/4
127 z+3/4,x+3/4,-y+1/4
128 z+1/4,-x+3/4,y+3/4
129 -y+3/4,-z+1/4,-x+3/4
130 y+1/4,-z+3/4,x+3/4
131 -y+1/4,z+1/4,x+1/4
132 y+3/4,z+3/4,-x+1/4
133 -y,-x,z
134 y+1/2,x,z+1/2
135 -y+1/2,x+1/2,-z
136 y,-x+1/2,-z+1/2
137 -x,-z,y
138 x,-z+1/2,-y+1/2
139 x+1/2,z,y+1/2
140 -x+1/2,z+1/2,-y
141 -z,-y,x
142 -z+1/2,y+1/2,-x
143 z,-y+1/2,-x+1/2
144 z+1/2,y,x+1/2
145 x+1/2,y+1/2,z
146 -x+1/2,-y,z+1/2
147 -x,y,-z
148 x,-y+1/2,-z+1/2
149 z+1/2,x+1/2,y
150 z,-x+1/2,-y+1/2
151 -z+1/2,-x,y+1/2
152 -z,x,-y
153 y+1/2,z+1/2,x
154 -y,z,-x
155 y,-z+1/2,-x+1/2
156 -y+1/2,-z,x+1/2
157 y+1/4,x+3/4,-z+3/4
158 -y+3/4,-x+3/4,-z+1/4
159 y+3/4,-x+1/4,z+3/4
160 -y+1/4,x+1/4,z+1/4
161 x+1/4,z+3/4,-y+3/4
162 -x+1/4,z+1/4,y+1/4
163 -x+3/4,-z+3/4,-y+1/4
164 x+3/4,-z+1/4,y+3/4
165 z+1/4,y+3/4,-x+3/4
166 z+3/4,-y+1/4,x+3/4
167 -z+1/4,y+1/4,x+1/4
168 -z+3/4,-y+3/4,-x+1/4
169 -x+3/4,-y+3/4,-z+1/4
170 x+3/4,y+1/4,-z+3/4
171 x+1/4,-y+1/4,z+1/4
172 -x+1/4,y+3/4,z+3/4
173 -z+3/4,-x+3/4,-y+1/4
174 -z+1/4,x+3/4,y+3/4
175 z+3/4,x+1/4,-y+3/4
176 z+1/4,-x+1/4,y+1/4
177 -y+3/4,-z+3/4,-x+1/4
178 y+1/4,-z+1/4,x+1/4
179 -y+1/4,z+3/4,x+3/4
180 y+3/4,z+1/4,-x+3/4
181 -y,-x+1/2,z+1/2
182 y+1/2,x+1/2,z
183 -y+1/2,x,-z+1/2
184 y,-x,-z
185 -x,-z+1/2,y+1/2
186 x,-z,-y
187 x+1/2,z+1/2,y
188 -x+1/2,z,-y+1/2
189 -z,-y+1/2,x+1/2
190 -z+1/2,y,-x+1/2
191 z,-y,-x
192 z+1/2,y+1/2,x
loop_
_atom_site_label
_atom_site_type_symbol
_atom_site_fract_x
_atom_site_fract_y
_atom_site_fract_z
_atom_site_adp_type
_atom_site_U_iso_or_equiv
_atom_site_site_symmetry_multiplicity
_atom_site_occupancy
_atom_site_calc_flag
Li1 Li 0.25 0.25 0.25 Uiso 0.043 8 0.8311 d
Mn2 Mn 0.25 0.25 0.25 Uiso 0.0199 8 0.1689 d
Mn1 Mn 0.625 0.625 0.625 Uiso 0.0199 16 0.9309 d
Li2 Li 0.625 0.625 0.625 Uiso 0.043 16 0.0691 d
O1 O 0.387557 0.387557 0.387557 Uiso 0.0133 32 1 d
loop_
_atom_type_symbol
_atom_type_scat_dispersion_real
_atom_type_scat_dispersion_imag
_atom_type_scat_source
Li 0.0008 0.0003 'International Tables Vol C tables 4.2.6.8 and 6.1.1.1'
Mn -0.5299 2.8052 'International Tables Vol C tables 4.2.6.8 and 6.1.1.1'
O 0.0492 0.0322 'International Tables Vol C tables 4.2.6.8 and 6.1.1.1'
