#------------------------------------------------------------------------------
#$Date: 2019-10-28 18:59:30 +0200 (Mon, 28 Oct 2019) $
#$Revision: 220277 $
#$URL: file:///home/coder/svn-repositories/cod/cif/4/51/51/4515175.cif $
#------------------------------------------------------------------------------
#
# This file is available in the Crystallography Open Database (COD),
# http://www.crystallography.net/
#
# All data on this site have been placed in the public domain by the
# contributors.
#
data_4515175
loop_
_publ_author_name
'Li, Guowei'
'Khim, Seunghyun'
'Chang, Celesta S.'
'Fu, Chenguang'
'Nandi, Nabhanila'
'Li, Fan'
'Yang, Qun'
'Blake, Graeme R.'
'Parkin, Stuart'
'Auffermann, Gudrun'
'Sun, Yan'
'Muller, David A.'
'Mackenzie, Andrew P.'
'Felser, Claudia'
_publ_section_title
;
 In Situ Modification of a Delafossite-Type PdCoO<sub>2</sub> Bulk Single
 Crystal for Reversible Hydrogen Sorption and Fast Hydrogen Evolution.
;
_journal_issue                   9
_journal_name_full               'ACS energy letters'
_journal_page_first              2185
_journal_page_last               2191
_journal_paper_doi               10.1021/acsenergylett.9b01527
_journal_volume                  4
_journal_year                    2019
_chemical_formula_sum            'Co O2 Pd'
_chemical_formula_weight         197.33
_space_group_crystal_system      trigonal
_space_group_IT_number           166
_space_group_name_Hall           '-R 3 2"'
_space_group_name_H-M_alt        'R -3 m :H'
_symmetry_space_group_name_Hall  '-R 3 2"'
_symmetry_space_group_name_H-M   'R -3 m :H'
_audit_creation_method           SHELXL-2016/6
_cell_angle_alpha                90
_cell_angle_beta                 90
_cell_angle_gamma                120
_cell_formula_units_Z            1
_cell_length_a                   2.845(3)
_cell_length_b                   2.845(3)
_cell_length_c                   17.880(16)
_cell_measurement_reflns_used    360
_cell_measurement_temperature    295(2)
_cell_measurement_theta_max      80.556
_cell_measurement_theta_min      6.837
_cell_volume                     125.3(2)
_computing_structure_refinement  'SHELXL-2016/6 (Sheldrick, 2016)'
_diffrn_ambient_temperature      295(2)
_diffrn_measured_fraction_theta_full 0.977
_diffrn_measured_fraction_theta_max 0.879
_diffrn_measurement_device_type  'Bruker D8 Venture; Photon100 area detector'
_diffrn_measurement_method       'phi and omega scans'
_diffrn_radiation_type           MoK\a
_diffrn_radiation_wavelength     0.71073
_diffrn_reflns_av_R_equivalents  0.0300
_diffrn_reflns_av_unetI/netI     0.0286
_diffrn_reflns_Laue_measured_fraction_full 0.977
_diffrn_reflns_Laue_measured_fraction_max 0.879
_diffrn_reflns_limit_h_max       5
_diffrn_reflns_limit_h_min       -4
_diffrn_reflns_limit_k_max       4
_diffrn_reflns_limit_k_min       -3
_diffrn_reflns_limit_l_max       31
_diffrn_reflns_limit_l_min       -31
_diffrn_reflns_number            389
_diffrn_reflns_point_group_measured_fraction_full 0.977
_diffrn_reflns_point_group_measured_fraction_max 0.879
_diffrn_reflns_theta_full        25.242
_diffrn_reflns_theta_max         40.276
_diffrn_reflns_theta_min         3.418
_exptl_absorpt_coefficient_mu    6.731
_exptl_absorpt_correction_T_max  0.2795
_exptl_absorpt_correction_T_min  0.1637
_exptl_absorpt_correction_type   multi-scan
_exptl_absorpt_process_details
'SAD2ABS-2014/4 - Bruker AXS area detector scaling and absorption correction'
_exptl_crystal_colour            black
_exptl_crystal_density_diffrn    2.615
_exptl_crystal_description       prism
_exptl_crystal_F_000             89
_exptl_crystal_size_max          0.100
_exptl_crystal_size_mid          0.080
_exptl_crystal_size_min          0.050
_refine_diff_density_max         1.806
_refine_diff_density_min         -1.937
_refine_diff_density_rms         0.635
_refine_ls_extinction_coef       0.027(5)
_refine_ls_extinction_expression Fc^*^=kFc[1+0.001xFc^2^\l^3^/sin(2\q)]^-1/4^
_refine_ls_extinction_method     'SHELXL-2016/6 (Sheldrick 2016)'
_refine_ls_goodness_of_fit_ref   1.299
_refine_ls_hydrogen_treatment    undef
_refine_ls_matrix_type           full
_refine_ls_number_parameters     9
_refine_ls_number_reflns         116
_refine_ls_number_restraints     0
_refine_ls_restrained_S_all      1.299
_refine_ls_R_factor_all          0.0297
_refine_ls_R_factor_gt           0.0297
_refine_ls_shift/su_max          0.000
_refine_ls_shift/su_mean         0.000
_refine_ls_structure_factor_coef Fsqd
_refine_ls_weighting_details
'w=1/[\s^2^(Fo^2^)+(0.0456P)^2^] where P=(Fo^2^+2Fc^2^)/3'
_refine_ls_weighting_scheme      calc
_refine_ls_wR_factor_gt          0.0709
_refine_ls_wR_factor_ref         0.0709
_reflns_Friedel_coverage         0.000
_reflns_number_gt                116
_reflns_number_total             116
_reflns_threshold_expression     'I > 2\s(I)'
_cod_data_source_file            nz9b01527_si_002.cif
_cod_data_source_block           R-3m
_cod_original_cell_volume        125.3(3)
_cod_database_code               4515175
_shelx_shelxl_version_number     2016/6
_shelx_space_group_comment
;
The symmetry employed for this shelxl refinement is uniquely defined
by the following loop, which should always be used as a source of
symmetry information in preference to the above space-group names.
They are only intended as comments.
;
_shelx_estimated_absorpt_t_min   0.553
_shelx_estimated_absorpt_t_max   0.730
_shelx_res_file
;

TITL R-3m in R-3m
    R-3m.res
    created by SHELXL-2016/6 at 00:03:11 on 21-Aug-2018
CELL 0.71073   2.84490   2.84490  17.88010  90.0000  90.0000 120.0000
ZERR    1.00   0.00270   0.00270   0.01650   0.0000   0.0000   0.0000
LATT  3
SYMM -Y, X-Y, Z
SYMM -X+Y, -X, Z
SYMM Y, X, -Z
SYMM X-Y, -Y, -Z
SYMM -X, -X+Y, -Z
SFAC O CO PD
UNIT 2 1 1
TEMP 21.840
SIZE 0.05 0.08 0.10

L.S. 10
BOND
FMAP 2
PLAN 20
ACTA

WGHT    0.045600
EXTI    0.027037
FVAR       0.20723
PD1   3    0.000000    0.000000    0.000000    10.08333    0.00630    0.00630 =
         0.00303    0.00000    0.00000    0.00315
CO2   2    0.333333   -0.333333    0.166667    10.08333    0.00491    0.00491 =
         0.00280    0.00000    0.00000    0.00246
O3    1    0.000000    0.000000    0.112151    10.16667    0.00641    0.00641 =
         0.00339    0.00000    0.00000    0.00321
HKLF 4




REM  R-3m in R-3m
REM R1 =  0.0297 for     116 Fo > 4sig(Fo)  and  0.0297 for all     116 data
REM      9 parameters refined using      0 restraints

END

WGHT      0.0461      0.0000

REM Highest difference peak  1.806,  deepest hole -1.937,  1-sigma level  0.635
Q1    1  -0.2005 -0.4009  0.0057  10.50000  0.05    1.75
Q2    1   0.3333 -0.3333  0.0517  10.16667  0.05    1.68
Q3    1   0.0000  0.0000  0.1792  10.16667  0.05    1.63
Q4    1   0.4869 -0.4869  0.1621  10.50000  0.05    1.63
Q5    1  -0.3333  0.3333  0.1163  10.16667  0.05    1.62
Q6    1   0.0000  0.0000  0.0529  10.16667  0.05    1.50
Q7    1  -0.3333  0.3333  0.0833  10.16667  0.05    1.45
Q8    1  -0.3333  0.3333  0.0486  10.16667  0.05    1.32
Q9    1   0.4103 -0.1794  0.1236  10.50000  0.05    1.26
Q10   1   0.3333 -0.3333  0.0151  10.16667  0.05    1.14
Q11   1  -0.1708 -0.3416  0.1273  10.50000  0.05    0.90
Q12   1   0.3990 -0.2020  0.0844  10.50000  0.05    0.61
Q13   1   0.2060 -0.2060  0.0299  10.50000  0.05    0.56
Q14   1   0.1560  0.3121  0.1375  10.50000  0.05    0.50
Q15   1   0.0583 -0.4709  0.0349  10.50000  0.05    0.38
Q16   1   0.0939 -0.0939  0.0340  10.50000  0.05    0.37
;
_shelx_res_checksum              90091
_shelx_hkl_file
;
  -1  -1   0  903.93   35.77
   0   1  -1  176.92    6.94
   0  -1   1  172.16    6.94
   1   0   1  177.44    6.93
  -2  -1  -1   57.43    2.36
  -2   0   1   68.74    2.77
   1   0  -2  744.11   31.29
   0   1   2  848.73   31.25
  -1   0   2  782.81   31.38
  -3   1   2  337.05   13.42
  -2  -1   2  355.90   14.09
   0   0  -3   33.04    1.23
   0   0  -3   27.68    1.23
  -2   1   3   20.44    0.93
  -1  -1   3   18.75    0.82
  -4   2   3    9.02    0.79
  -3   0   3   12.76    0.65
   0   1  -4  607.36   23.82
   0  -1   4  597.87   23.96
  -2   0   4  339.39   13.45
  -1  -2   4  250.11    9.97
  -3  -1   4  102.00    4.30
   0  -1  -5    6.52    0.33
  -1   1  -5    7.30    0.32
  -1   0   5    6.34    0.38
   1  -1   5    7.13    0.34
   0  -2   5    8.96    0.47
  -3   1   5    8.65    0.61
  -4   3   5    5.09    0.68
  -2  -1   5    9.26    0.51
   0   0  -6  910.42   34.50
   0   0   6  835.21   34.60
   0   0   6  875.74   34.46
  -2   1   6  434.23   17.21
   1  -2  -6  380.74   15.48
  -1  -1   6  402.53   15.49
  -4   2   6  154.75    6.36
   3  -3  -6  223.46    8.94
  -3   0   6  214.44    8.60
  -2  -2   6  163.91    6.63
   1  -1  -7   76.25    2.90
   0   1  -7   66.84    2.88
   0  -1   7   70.42    2.87
  -3   2   7   27.53    1.31
  -2   0   7   40.43    1.76
   5  -3  -7    8.59    1.02
  -1  -2   7   26.77    1.21
  -4   1   7   17.31    1.03
  -3  -1   7   17.48    0.96
  -1   1  -8  865.66   36.11
   1   0  -8 1000.00   36.29
   0  -1  -8  942.39   36.29
  -1   1  -8  926.96   35.94
  -1   0   8  816.18   36.10
   1  -1   8  928.62   36.10
   2  -2  -8  388.17   16.40
   0  -2   8  432.95   16.27
  -3   1   8  344.44   13.77
   4  -3  -8  195.94    7.95
  -2  -1   8  330.32   13.15
   0   0  -9  185.14    7.49
   0   0  -9  184.94    7.45
   0   0   9  192.56    7.46
  -2   1   9   78.39    3.27
   1  -2   9   79.46    3.22
   1   1  -9   80.29    3.19
   1  -2  -9   75.37    3.20
  -1  -1   9   77.73    3.20
  -4   2   9   31.06    1.58
   3  -3  -9   36.22    1.65
  -3   0   9   44.35    2.00
   2   2  -9   29.85    1.43
  -2  -2   9   30.60    1.43
   1  -1 -10  785.31   30.34
  -1   0 -10  778.60   30.32
   0   1 -10  728.68   30.26
   0  -1  10  744.70   30.30
  -1   1  10  779.97   30.13
   3  -2 -10  347.68   13.16
  -3   2  10  309.72   13.15
  -2   0  10  398.99   15.88
   2  -3 -10  304.73   11.96
   1   2 -10  306.06   11.95
  -1  -2  10  289.63   11.97
  -4   1  10  168.29    6.90
  -4   4  10  137.33    5.76
  -3  -1  10  184.65    7.51
   1   0 -11   51.40    2.12
   0  -1 -11   46.88    2.12
  -1   1 -11   48.79    2.09
  -1   0  11   52.96    2.19
   1  -1  11   50.25    2.05
   2  -2 -11   31.64    1.42
   0   2 -11   31.35    1.35
   0  -2  11   30.17    1.38
  -3   1  11   28.90    1.43
   4  -3 -11   14.03    0.96
  -4   3  11   12.79    0.99
   2   1 -11   27.02    1.27
  -2  -1  11   26.32    1.29
  -1  -3  11   13.94    0.87
   4   0 -11   12.53    0.98
   0   0 -12  563.70   22.04
   0   0  12  549.63   21.99
  -1   2 -12  347.66   13.49
   2  -1 -12  353.65   13.59
   1  -2  12  336.14   13.52
  -2   1  12  325.03   13.58
   1   1 -12  325.49   12.67
   1  -2 -12  307.96   12.66
  -1  -1  12  320.77   12.69
   4  -2 -12  133.39    5.48
  -4   2  12  129.15    5.52
   3  -3 -12  170.73    6.85
   0  -3  12  165.07    6.83
   3   0 -12  197.51    7.73
  -3   0  12  179.84    7.70
   2   2 -12  135.57    5.54
  -2  -2  12  133.87    5.57
   1  -1 -13    8.72    0.56
   0   1 -13   11.10    0.57
  -1   0 -13   10.05    0.56
  -1   1  13    9.68    0.55
   0  -1  13    9.65    0.54
   3  -2 -13    7.25    0.62
  -3   2  13    8.72    0.66
   0  -2 -13   11.03    0.61
   2   0 -13   11.07    0.66
  -2   0  13   10.23    0.66
   2  -3 -13    8.40    0.61
   1   2 -13    7.67    0.59
  -1  -2  13    8.18    0.59
   4  -1 -13    4.44    0.63
  -4   1  13    4.52    0.61
  -4   4  13    3.56    0.59
   3   1 -13    6.48    0.78
  -3  -1  13    6.50    0.82
  -1   1 -14  353.83   14.19
   1   0 -14  356.08   14.23
   0  -1 -14  357.07   14.22
  -1   0  14  343.74   14.19
   1  -1  14  361.05   14.13
   0   1  14  368.71   14.15
   2  -2 -14  244.93    9.86
   0   2 -14  244.41    9.77
  -2   2  14  245.22    9.85
   0  -2  14  244.31    9.82
   3  -1 -14  187.88    7.59
  -3   1  14  183.34    7.57
   4  -3 -14  103.45    4.44
  -4   3  14  104.23    4.47
   2   1 -14  170.98    7.07
   1  -3 -14  177.83    7.01
  -2  -1  14  172.58    7.11
  -1  -3  14  106.43    4.51
   4   0 -14   81.80    3.67
   0   0 -15   24.47    1.19
   0   0  15   26.29    1.15
  -1   2 -15   20.09    0.97
   2  -1 -15   20.88    1.07
  -2   1  15   20.71    1.05
   1  -2  15   20.87    0.99
   1  -2 -15   18.27    0.92
   1   1 -15   18.43    0.95
  -1  -1  15   18.01    0.95
   4  -2 -15    9.04    0.87
  -4   2  15    9.96    0.90
   3  -3 -15    9.96    0.86
   0  -3  15   11.65    0.76
  -3   3  15   10.97    0.83
   3   0 -15   11.39    1.10
  -3   0  15   14.70    0.94
  -2  -2  15    9.05    0.87
  -1   0 -16  440.88   17.02
   1  -1 -16  412.53   17.00
   0   1 -16  436.88   16.98
   0  -1  16  432.35   16.96
  -1   1  16  409.13   16.96
   1   0  16  428.16   16.86
   3  -2 -16  230.56    9.28
  -3   2  16  220.74    9.25
   1  -3  16  231.20    9.21
   2   0 -16  283.21   11.42
   0  -2 -16  284.40   11.37
  -2   0  16  283.75   11.40
   1   2 -16  213.10    8.73
   2  -3 -16  217.02    8.72
  -1  -2  16  217.77    8.78
   4  -1 -16  122.33    5.27
  -4   1  16  127.20    5.27
   3   1 -16  134.54    5.68
  -3  -1  16  134.71    5.70
   0  -1 -17   66.61    2.61
  -1   1 -17   59.40    2.57
   1   0 -17   55.52    2.59
   1  -1  17   56.67    2.48
  -1   0  17   59.06    2.54
   0   1  17   60.15    2.51
   0   2 -17   45.16    1.91
   2  -2 -17   39.66    2.00
  -2   2  17   43.25    1.98
   0  -2  17   45.47    1.98
   3  -1 -17   39.64    1.93
  -3   1  17   38.50    1.85
   4  -3 -17   18.71    1.39
  -4   3  17   22.01    1.36
   2   1 -17   33.66    1.61
   1  -3 -17   30.80    1.58
  -2  -1  17   34.22    1.64
  -1  -3  17   19.83    1.25
  -3   4  17   18.88    1.27
   0   0 -18  511.88   20.83
   0   0  18  536.06   20.77
   2  -1 -18  330.06   13.75
  -1   2 -18  338.48   13.64
  -2   1  18  353.35   13.71
   1  -2  18  346.05   13.65
   1   1 -18  313.12   13.07
   1  -2 -18  321.24   13.04
  -1  -1  18  335.66   13.08
  -1   2  18  333.81   13.04
   4  -2 -18  151.27    6.56
  -4   2  18  161.51    6.52
   3  -3 -18  215.90    8.57
  -3   3  18  199.98    8.50
   0  -3  18  205.67    8.49
   3   0 -18  211.28    8.58
  -3   0  18  204.15    8.50
  -2  -2  18  159.12    6.66
  -1   0 -19   50.09    2.24
   0   1 -19   47.57    2.18
   1  -1 -19   50.55    2.23
   1   0  19   49.23    2.07
  -1   1  19   49.87    2.18
   0  -1  19   48.80    2.17
   3  -2 -19   27.98    1.55
  -3   2  19   28.38    1.50
   1  -3  19   28.90    1.47
   0  -2 -19   35.01    1.70
   2   0 -19   35.68    1.74
  -2   0  19   36.81    1.68
   0   2  19   35.76    1.62
   2  -3 -19   27.76    1.46
   1   2 -19   28.75    1.44
  -2   3  19   28.83    1.47
  -1  -2  19   27.66    1.47
   4  -1 -19   14.54    1.27
  -4   1  19   17.48    1.26
   3   1 -19   16.51    1.39
  -3  -1  19   17.47    1.40
  -1   1 -20  312.11   12.45
   1   0 -20  304.93   12.48
   0  -1 -20  307.39   12.45
   1  -1  20  304.99   12.34
   0   1  20  321.37   12.36
  -1   0  20  307.83   12.41
   0   2 -20  229.04    9.13
   2  -2 -20  224.57    9.24
   0  -2  20  227.14    9.20
  -2   2  20  225.35    9.21
   3  -1 -20  175.57    7.35
  -3   1  20  177.04    7.26
   1  -3 -20  159.58    6.58
   2   1 -20  154.44    6.64
  -2  -1  20  166.63    6.64
   0   0 -21   15.85    0.92
   0   0  21   16.23    0.85
  -1   2 -21   14.21    0.86
   2  -1 -21   12.86    0.92
   1  -2  21   13.84    0.85
  -2   1  21   14.88    0.88
   1  -2 -21   13.65    0.85
   1   1 -21   13.04    0.86
  -1  -1  21   13.70    0.84
  -1   2  21   12.41    0.83
   3  -3 -21    7.98    1.01
  -3   3  21   10.36    0.95
   0  -3  21    6.81    0.87
   3   0 -21   10.02    1.05
  -3   0  21    8.76    0.89
  -1   0 -22  218.57    8.81
   0   1 -22  213.71    8.75
   1  -1 -22  213.14    8.79
   1   0  22  216.87    8.60
   0  -1  22  216.32    8.72
  -1   1  22  213.03    8.72
   3  -2 -22  116.53    5.21
  -3   2  22  124.46    5.13
   1  -3  22  121.15    5.12
   2   0 -22  116.50    5.87
   0  -2 -22  145.70    5.62
   0   2  22  137.96    5.51
  -2   0  22  137.28    5.62
   2  -3 -22  117.82    5.00
   1   2 -22  123.43    5.01
  -1  -2  22  117.94    5.04
  -2   3  22  116.38    5.05
   0  -1 -23   10.32    0.79
  -1   1 -23   11.83    0.79
   1   0 -23   10.34    0.81
  -1   0  23   11.22    0.72
   0   1  23   11.73    0.71
   1  -1  23   11.02    0.71
   2  -2 -23    9.17    0.85
   0   2 -23    8.48    0.74
  -2   2  23    9.66    0.78
   0  -2  23    8.80    0.76
   3  -1 -23    6.88    0.94
  -3   1  23    6.68    0.78
   1  -3 -23    6.06    0.94
   2   1 -23    6.50    0.86
  -2  -1  23    7.22    0.76
  -1   3  23    7.36    1.01
   0   0 -24  245.69    9.89
   0   0  24  240.04    9.77
  -1   2 -24  178.64    7.47
   2  -1 -24  183.91    7.62
  -2   1  24  183.87    7.52
   1  -2  24  186.06    7.48
   1  -2 -24  185.69    7.58
  -1  -1  24  174.39    7.20
  -1   2  24  165.99    7.29
   3  -3 -24  103.53    4.40
   0  -3  24   97.84    4.42
  -3   3  24   97.79    4.50
   3   0 -24  100.13    4.51
  -3   0  24   93.40    4.29
   0   1 -25   29.33    1.48
  -1   1  25   27.78    1.41
   0  -1  25   28.44    1.43
   3  -2 -25   18.04    1.33
  -3   2  25   15.07    1.15
   1  -3  25   15.85    1.22
   2   0 -25   22.13    1.34
   0  -2 -25   20.89    1.27
  -2   0  25   20.89    1.21
   2  -3 -25   15.81    1.26
  -1  -2  25   15.18    1.12
  -2   3  25   16.78    1.24
   0  -1 -26  247.41   10.25
  -1   1 -26  255.33   10.25
   1   0 -26  253.59   10.28
   0   1  26  251.46   10.10
   1  -1  26  256.61   10.12
  -1   0  26  245.79   10.18
   0   2 -26  188.04    8.09
   2  -2 -26  204.76    8.24
  -2   2  26  195.65    8.15
   0  -2  26  205.29    8.17
   3  -1 -26  131.92    5.88
  -3   1  26  134.38    5.64
   2   1 -26  133.62    5.61
  -2  -1  26  135.23    5.60
  -1   3  26  126.40    5.68
   0   0 -27   41.94    2.05
   0   0  27   41.86    1.93
  -1   2 -27   32.46    1.68
   2  -1 -27   33.06    1.78
  -2   1  27   31.89    1.67
   1  -2  27   31.41    1.67
   1  -2 -27   29.23    1.65
   1   1 -27   31.00    1.66
  -1  -1  27   31.21    1.62
  -1   2  27   31.52    1.60
  -1   0 -28  222.21    8.93
   1  -1 -28  216.57    8.92
   0   1 -28  217.44    8.87
   0  -1  28  215.58    8.81
  -1   1  28  208.81    8.78
   2   0 -28  149.36    6.46
  -2   0  28  157.41    6.40
   1   0 -29   16.75    1.18
   0  -1 -29   17.09    1.20
  -1   1 -29   15.74    1.19
  -1   0  29   17.71    1.12
   2  -2 -29    9.60    1.24
  -2   2  29   12.22    1.07
   0  -2  29   11.21    1.11
   0   0 -30  152.95    6.14
   0   0  30  135.84    5.94
  -2   1  30   75.97    3.86
   1   1 -30   88.92    3.94
   1  -2 -30   92.94    4.00
  -1  -1  30   79.41    4.11
  -1   2  30   89.10    3.82
   0   1 -31    5.66    0.97
   1  -1 -31    4.43    0.79
  -1   1  31    5.52    0.77
   0  -1  31    4.02    0.67
   0   0   0    0.00    0.00
;
_shelx_hkl_checksum              38071
loop_
_space_group_symop_operation_xyz
'x, y, z'
'-y, x-y, z'
'-x+y, -x, z'
'y, x, -z'
'x-y, -y, -z'
'-x, -x+y, -z'
'x+2/3, y+1/3, z+1/3'
'-y+2/3, x-y+1/3, z+1/3'
'-x+y+2/3, -x+1/3, z+1/3'
'y+2/3, x+1/3, -z+1/3'
'x-y+2/3, -y+1/3, -z+1/3'
'-x+2/3, -x+y+1/3, -z+1/3'
'x+1/3, y+2/3, z+2/3'
'-y+1/3, x-y+2/3, z+2/3'
'-x+y+1/3, -x+2/3, z+2/3'
'y+1/3, x+2/3, -z+2/3'
'x-y+1/3, -y+2/3, -z+2/3'
'-x+1/3, -x+y+2/3, -z+2/3'
'-x, -y, -z'
'y, -x+y, -z'
'x-y, x, -z'
'-y, -x, z'
'-x+y, y, z'
'x, x-y, z'
'-x+2/3, -y+1/3, -z+1/3'
'y+2/3, -x+y+1/3, -z+1/3'
'x-y+2/3, x+1/3, -z+1/3'
'-y+2/3, -x+1/3, z+1/3'
'-x+y+2/3, y+1/3, z+1/3'
'x+2/3, x-y+1/3, z+1/3'
'-x+1/3, -y+2/3, -z+2/3'
'y+1/3, -x+y+2/3, -z+2/3'
'x-y+1/3, x+2/3, -z+2/3'
'-y+1/3, -x+2/3, z+2/3'
'-x+y+1/3, y+2/3, z+2/3'
'x+1/3, x-y+2/3, z+2/3'
loop_
_atom_site_label
_atom_site_type_symbol
_atom_site_fract_x
_atom_site_fract_y
_atom_site_fract_z
_atom_site_U_iso_or_equiv
_atom_site_adp_type
_atom_site_occupancy
_atom_site_site_symmetry_order
_atom_site_calc_flag
_atom_site_refinement_flags_posn
_atom_site_refinement_flags_adp
_atom_site_refinement_flags_occupancy
Pd1 Pd 0.000000 0.000000 0.000000 0.0052(2) Uani 1 12 d S T P
Co2 Co 0.333333 -0.333333 0.166667 0.0042(3) Uani 1 12 d S T P
O3 O 0.000000 0.000000 0.11215(16) 0.0054(6) Uani 1 6 d S T P
loop_
_atom_site_aniso_label
_atom_site_aniso_U_11
_atom_site_aniso_U_22
_atom_site_aniso_U_33
_atom_site_aniso_U_23
_atom_site_aniso_U_13
_atom_site_aniso_U_12
Pd1 0.0063(3) 0.0063(3) 0.0030(3) 0.000 0.000 0.00315(15)
Co2 0.0049(4) 0.0049(4) 0.0028(4) 0.000 0.000 0.0025(2)
O3 0.0064(9) 0.0064(9) 0.0034(9) 0.000 0.000 0.0032(5)
loop_
_atom_type_symbol
_atom_type_description
_atom_type_scat_dispersion_real
_atom_type_scat_dispersion_imag
_atom_type_scat_source
O O 0.0106 0.0060 'International Tables Vol C Tables 4.2.6.8 and 6.1.1.4'
Co Co 0.3494 0.9721 'International Tables Vol C Tables 4.2.6.8 and 6.1.1.4'
Pd Pd -0.9988 1.0072 'International Tables Vol C Tables 4.2.6.8 and 6.1.1.4'
loop_
_geom_angle_atom_site_label_1
_geom_angle_atom_site_label_2
_geom_angle_atom_site_label_3
_geom_angle
_geom_angle_site_symmetry_1
_geom_angle_site_symmetry_3
O3 Pd1 O3 180.0 . 19
O3 Pd1 Pd1 90.0 . 1_445
O3 Pd1 Pd1 90.0 19 1_445
O3 Pd1 Pd1 90.0 . 1_665
O3 Pd1 Pd1 90.0 19 1_665
Pd1 Pd1 Pd1 180.0 1_445 1_665
O3 Pd1 Pd1 90.0 . 1_545
O3 Pd1 Pd1 90.0 19 1_545
Pd1 Pd1 Pd1 60.0 1_445 1_545
Pd1 Pd1 Pd1 120.0 1_665 1_545
O3 Pd1 Pd1 90.0 . 1_655
O3 Pd1 Pd1 90.0 19 1_655
Pd1 Pd1 Pd1 120.0 1_445 1_655
Pd1 Pd1 Pd1 60.0 1_665 1_655
Pd1 Pd1 Pd1 60.0 1_545 1_655
O3 Pd1 Pd1 90.0 . 1_565
O3 Pd1 Pd1 90.0 19 1_565
Pd1 Pd1 Pd1 120.0 1_445 1_565
Pd1 Pd1 Pd1 60.0 1_665 1_565
Pd1 Pd1 Pd1 180.0 1_545 1_565
Pd1 Pd1 Pd1 120.0 1_655 1_565
O3 Pd1 Pd1 90.0 . 1_455
O3 Pd1 Pd1 90.0 19 1_455
Pd1 Pd1 Pd1 60.0 1_445 1_455
Pd1 Pd1 Pd1 120.0 1_665 1_455
Pd1 Pd1 Pd1 120.0 1_545 1_455
Pd1 Pd1 Pd1 180.0 1_655 1_455
Pd1 Pd1 Pd1 60.0 1_565 1_455
O3 Co2 O3 96.28(11) 1_545 1_655
O3 Co2 O3 96.28(10) 1_545 .
O3 Co2 O3 96.28(11) 1_655 .
O3 Co2 O3 83.72(11) 1_545 25_545
O3 Co2 O3 83.72(11) 1_655 25_545
O3 Co2 O3 180.0 . 25_545
O3 Co2 O3 180.0 1_545 25
O3 Co2 O3 83.72(11) 1_655 25
O3 Co2 O3 83.72(11) . 25
O3 Co2 O3 96.27(11) 25_545 25
O3 Co2 O3 83.72(11) 1_545 25_445
O3 Co2 O3 180.0 1_655 25_445
O3 Co2 O3 83.72(11) . 25_445
O3 Co2 O3 96.27(11) 25_545 25_445
O3 Co2 O3 96.27(11) 25 25_445
O3 Co2 Co2 90.0 1_545 25_645
O3 Co2 Co2 41.86(5) 1_655 25_645
O3 Co2 Co2 138.14(5) . 25_645
O3 Co2 Co2 41.86(5) 25_545 25_645
O3 Co2 Co2 90.0 25 25_645
O3 Co2 Co2 138.14(5) 25_445 25_645
O3 Co2 Co2 138.14(5) 1_545 1_565
O3 Co2 Co2 90.0 1_655 1_565
O3 Co2 Co2 41.86(5) . 1_565
O3 Co2 Co2 138.14(5) 25_545 1_565
O3 Co2 Co2 41.86(5) 25 1_565
O3 Co2 Co2 90.0 25_445 1_565
Co2 Co2 Co2 120.0 25_645 1_565
O3 Co2 Co2 90.0 1_545 1_455
O3 Co2 Co2 138.14(5) 1_655 1_455
O3 Co2 Co2 41.86(5) . 1_455
O3 Co2 Co2 138.14(5) 25_545 1_455
O3 Co2 Co2 90.0 25 1_455
O3 Co2 Co2 41.86(5) 25_445 1_455
Co2 Co2 Co2 180.0 25_645 1_455
Co2 Co2 Co2 60.0 1_565 1_455
O3 Co2 Co2 41.86(5) 1_545 1_445
O3 Co2 Co2 138.14(5) 1_655 1_445
O3 Co2 Co2 90.0 . 1_445
O3 Co2 Co2 90.0 25_545 1_445
O3 Co2 Co2 138.14(5) 25 1_445
O3 Co2 Co2 41.86(5) 25_445 1_445
Co2 Co2 Co2 120.0 25_645 1_445
Co2 Co2 Co2 120.0 1_565 1_445
Co2 Co2 Co2 60.0 1_455 1_445
O3 Co2 Co2 138.14(5) 1_545 25_655
O3 Co2 Co2 41.86(5) 1_655 25_655
O3 Co2 Co2 90.0 . 25_655
O3 Co2 Co2 90.0 25_545 25_655
O3 Co2 Co2 41.86(5) 25 25_655
O3 Co2 Co2 138.14(5) 25_445 25_655
Co2 Co2 Co2 60.0 25_645 25_655
Co2 Co2 Co2 60.0 1_565 25_655
Co2 Co2 Co2 120.0 1_455 25_655
Co2 Co2 Co2 180.0 1_445 25_655
O3 Co2 Co2 41.86(5) 1_545 1_545
O3 Co2 Co2 90.0 1_655 1_545
O3 Co2 Co2 138.14(5) . 1_545
O3 Co2 Co2 41.86(5) 25_545 1_545
O3 Co2 Co2 138.14(5) 25 1_545
O3 Co2 Co2 90.0 25_445 1_545
Co2 Co2 Co2 60.0 25_645 1_545
Co2 Co2 Co2 180.0 1_565 1_545
Co2 Co2 Co2 120.0 1_455 1_545
Co2 Co2 Co2 60.000(1) 1_445 1_545
Co2 Co2 Co2 120.0 25_655 1_545
Co2 O3 Co2 96.28(11) 1_565 1_455
Co2 O3 Co2 96.28(11) 1_565 .
Co2 O3 Co2 96.28(11) 1_455 .
Co2 O3 Pd1 120.69(8) 1_565 .
Co2 O3 Pd1 120.69(8) 1_455 .
Co2 O3 Pd1 120.69(8) . .
loop_
_geom_bond_atom_site_label_1
_geom_bond_atom_site_label_2
_geom_bond_distance
_geom_bond_site_symmetry_2
Pd1 O3 2.005(3) .
Pd1 O3 2.005(3) 19
Pd1 Pd1 2.845(3) 1_445
Pd1 Pd1 2.845(3) 1_665
Pd1 Pd1 2.845(3) 1_545
Pd1 Pd1 2.845(3) 1_655
Pd1 Pd1 2.845(3) 1_565
Pd1 Pd1 2.845(3) 1_455
Co2 O3 1.910(2) 1_545
Co2 O3 1.910(2) 1_655
Co2 O3 1.910(2) .
Co2 O3 1.910(2) 25_545
Co2 O3 1.910(2) 25
Co2 O3 1.910(2) 25_445
Co2 Co2 2.845(3) 25_645
Co2 Co2 2.845(3) 1_565
Co2 Co2 2.845(3) 1_455
Co2 Co2 2.845(3) 1_445
Co2 Co2 2.845(3) 25_655
Co2 Co2 2.845(3) 1_545
