#------------------------------------------------------------------------------
#$Date: 2016-03-02 09:51:31 +0200 (Wed, 02 Mar 2016) $
#$Revision: 177123 $
#$URL: svn://www.crystallography.net/cod/cif/5/91/00/5910089.cif $
#------------------------------------------------------------------------------
#
# This file is available in the Crystallography Open Database (COD),
# http://www.crystallography.net/
#
# All data on this site have been placed in the public domain by the
# contributors.
#
data_5910089
loop_
_publ_author_name
'Wyckoff, R. W. G.'
_publ_section_title
;
Page 54 from the second edition supplement of The Structure of Crystals by 
Wyckoff R W G. published by Reinhold PublishingCorporation, INC, Camden,N. J.
in 1935 & http://www.crystallography.net/
;
_journal_name_full
'The second edition supplement of The Structure of Crystals'
_journal_page_first              54
_journal_page_last               54
_journal_year                    1935
_chemical_formula_structural     InBO3
_chemical_formula_sum            'B In O3'
_symmetry_cell_setting           trigonal
_symmetry_Int_Tables_number      167
_symmetry_space_group_name_H-M   'R -3 c'
_audit_creation_date             2005-08-12
_audit_creation_method
;
Page 54 from the second edition supplement of The Structure of Crystals by 
Wyckoff R W G. published by Reinhold PublishingCorporation, INC, Camden,N. J.
in 1935 & http://www.crystallography.net/
;
_audit_update_record
'created by Girish Upreti, Portland State University'
_cell_angle_alpha                48.10
_cell_angle_beta                 48.10
_cell_angle_gamma                48.10
_cell_length_a                   5.841
_cell_length_b                   5.841
_cell_length_c                   5.841
_cell_volume                     101.164
_cod_original_formula_sum        'In B O3'
_cod_database_code               5910089
loop_
_atom_site_fract_x
_atom_site_fract_y
_atom_site_fract_z
_atom_site_label
0.25000 0.25000 0.25000 In
0.00000 0.00000 0.00000 B
0.23940 -0.23940 0.00000 O
