#------------------------------------------------------------------------------
#$Date: 2017-10-13 15:23:06 +0300 (Fri, 13 Oct 2017) $
#$Revision: 201983 $
#$URL: file:///home/coder/svn-repositories/cod/cif/5/91/00/5910030.cif $
#------------------------------------------------------------------------------
#
# This file is available in the Crystallography Open Database (COD),
# http://www.crystallography.net/
#
# All data on this site have been placed in the public domain by the
# contributors.
#
data_5910030
loop_
_publ_author_name
'Wyckoff, R. W. G.'
_publ_section_title
;
Pages 215 & 224 from the second edition of Structure of Crystals by Wyckoff 
R W G.published by The Chemical Catalog Company, INC, New York in 1931
;
_journal_name_full               'The second edition of Structure of Crystals'
_journal_page_first              215
_journal_page_last               224
_journal_year                    1931
_chemical_formula_structural     BaO
_chemical_formula_sum            'Ba O'
_chemical_name_systematic        'Barium oxide'
_space_group_IT_number           225
_symmetry_cell_setting           cubic
_symmetry_space_group_name_Hall  '-F 4 2 3'
_symmetry_space_group_name_H-M   'F m -3 m'
_audit_creation_date             2005-25-10
_audit_creation_method
;
Pages 215 & 224 from the second edition of Structure of Crystals by Wyckoff 
R W G.published by The Chemical Catalog Company, INC, New York in 1931
;
_audit_update_record
'created by Girish Upreti, Portland State University'
_cell_angle_alpha                90
_cell_angle_beta                 90
_cell_angle_gamma                90
_cell_length_a                   5.50
_cell_length_b                   5.50
_cell_length_c                   5.50
_cell_volume                     166.375
_cod_database_code               5910030
loop_
_symmetry_equiv_pos_as_xyz
x,y,z
x,-z,y
x,z,-y
z,y,-x
-z,y,x
-y,x,z
y,-x,z
z,x,y
y,z,x
-y,-z,x
z,-x,-y
-y,z,-x
-z,-x,y
-z,x,-y
y,-z,-x
x,-y,-z
-x,y,-z
-x,-y,z
y,x,-z
-y,-x,-z
z,-y,x
-z,-y,-x
-x,z,y
-x,-z,-y
-x,-y,-z
-x,z,-y
-x,-z,y
-z,-y,x
z,-y,-x
y,-x,-z
-y,x,-z
-z,-x,-y
-y,-z,-x
y,z,-x
-z,x,y
y,-z,x
z,x,-y
z,-x,y
-y,z,x
-x,y,z
x,-y,z
x,y,-z
-y,-x,z
y,x,z
-z,y,-x
z,y,x
x,-z,-y
x,z,y
x,y+1/2,z+1/2
x,-z+1/2,y+1/2
x,z+1/2,-y+1/2
z,y+1/2,-x+1/2
-z,y+1/2,x+1/2
-y,x+1/2,z+1/2
y,-x+1/2,z+1/2
z,x+1/2,y+1/2
y,z+1/2,x+1/2
-y,-z+1/2,x+1/2
z,-x+1/2,-y+1/2
-y,z+1/2,-x+1/2
-z,-x+1/2,y+1/2
-z,x+1/2,-y+1/2
y,-z+1/2,-x+1/2
x,-y+1/2,-z+1/2
-x,y+1/2,-z+1/2
-x,-y+1/2,z+1/2
y,x+1/2,-z+1/2
-y,-x+1/2,-z+1/2
z,-y+1/2,x+1/2
-z,-y+1/2,-x+1/2
-x,z+1/2,y+1/2
-x,-z+1/2,-y+1/2
-x,-y+1/2,-z+1/2
-x,z+1/2,-y+1/2
-x,-z+1/2,y+1/2
-z,-y+1/2,x+1/2
z,-y+1/2,-x+1/2
y,-x+1/2,-z+1/2
-y,x+1/2,-z+1/2
-z,-x+1/2,-y+1/2
-y,-z+1/2,-x+1/2
y,z+1/2,-x+1/2
-z,x+1/2,y+1/2
y,-z+1/2,x+1/2
z,x+1/2,-y+1/2
z,-x+1/2,y+1/2
-y,z+1/2,x+1/2
-x,y+1/2,z+1/2
x,-y+1/2,z+1/2
x,y+1/2,-z+1/2
-y,-x+1/2,z+1/2
y,x+1/2,z+1/2
-z,y+1/2,-x+1/2
z,y+1/2,x+1/2
x,-z+1/2,-y+1/2
x,z+1/2,y+1/2
x+1/2,y,z+1/2
x+1/2,-z,y+1/2
x+1/2,z,-y+1/2
z+1/2,y,-x+1/2
-z+1/2,y,x+1/2
-y+1/2,x,z+1/2
y+1/2,-x,z+1/2
z+1/2,x,y+1/2
y+1/2,z,x+1/2
-y+1/2,-z,x+1/2
z+1/2,-x,-y+1/2
-y+1/2,z,-x+1/2
-z+1/2,-x,y+1/2
-z+1/2,x,-y+1/2
y+1/2,-z,-x+1/2
x+1/2,-y,-z+1/2
-x+1/2,y,-z+1/2
-x+1/2,-y,z+1/2
y+1/2,x,-z+1/2
-y+1/2,-x,-z+1/2
z+1/2,-y,x+1/2
-z+1/2,-y,-x+1/2
-x+1/2,z,y+1/2
-x+1/2,-z,-y+1/2
-x+1/2,-y,-z+1/2
-x+1/2,z,-y+1/2
-x+1/2,-z,y+1/2
-z+1/2,-y,x+1/2
z+1/2,-y,-x+1/2
y+1/2,-x,-z+1/2
-y+1/2,x,-z+1/2
-z+1/2,-x,-y+1/2
-y+1/2,-z,-x+1/2
y+1/2,z,-x+1/2
-z+1/2,x,y+1/2
y+1/2,-z,x+1/2
z+1/2,x,-y+1/2
z+1/2,-x,y+1/2
-y+1/2,z,x+1/2
-x+1/2,y,z+1/2
x+1/2,-y,z+1/2
x+1/2,y,-z+1/2
-y+1/2,-x,z+1/2
y+1/2,x,z+1/2
-z+1/2,y,-x+1/2
z+1/2,y,x+1/2
x+1/2,-z,-y+1/2
x+1/2,z,y+1/2
x+1/2,y+1/2,z
x+1/2,-z+1/2,y
x+1/2,z+1/2,-y
z+1/2,y+1/2,-x
-z+1/2,y+1/2,x
-y+1/2,x+1/2,z
y+1/2,-x+1/2,z
z+1/2,x+1/2,y
y+1/2,z+1/2,x
-y+1/2,-z+1/2,x
z+1/2,-x+1/2,-y
-y+1/2,z+1/2,-x
-z+1/2,-x+1/2,y
-z+1/2,x+1/2,-y
y+1/2,-z+1/2,-x
x+1/2,-y+1/2,-z
-x+1/2,y+1/2,-z
-x+1/2,-y+1/2,z
y+1/2,x+1/2,-z
-y+1/2,-x+1/2,-z
z+1/2,-y+1/2,x
-z+1/2,-y+1/2,-x
-x+1/2,z+1/2,y
-x+1/2,-z+1/2,-y
-x+1/2,-y+1/2,-z
-x+1/2,z+1/2,-y
-x+1/2,-z+1/2,y
-z+1/2,-y+1/2,x
z+1/2,-y+1/2,-x
y+1/2,-x+1/2,-z
-y+1/2,x+1/2,-z
-z+1/2,-x+1/2,-y
-y+1/2,-z+1/2,-x
y+1/2,z+1/2,-x
-z+1/2,x+1/2,y
y+1/2,-z+1/2,x
z+1/2,x+1/2,-y
z+1/2,-x+1/2,y
-y+1/2,z+1/2,x
-x+1/2,y+1/2,z
x+1/2,-y+1/2,z
x+1/2,y+1/2,-z
-y+1/2,-x+1/2,z
y+1/2,x+1/2,z
-z+1/2,y+1/2,-x
z+1/2,y+1/2,x
x+1/2,-z+1/2,-y
x+1/2,z+1/2,y
loop_
_atom_site_fract_x
_atom_site_fract_y
_atom_site_fract_z
_atom_site_label
0.00000 0.00000 0.00000 Ba
0.50000 0.50000 0.50000 O
loop_
_cod_related_entry_id
_cod_related_entry_database
_cod_related_entry_code
1 ChemSpider 8031230
