#------------------------------------------------------------------------------
#$Date: 2017-11-20 02:17:30 +0200 (Mon, 20 Nov 2017) $
#$Revision: 203340 $
#$URL: file:///home/coder/svn-repositories/cod/cif/6/00/03/6000322.cif $
#------------------------------------------------------------------------------
#
# This file is available in the Crystallography Open Database (COD),
# http://www.crystallography.net/
#
# All data on this site have been placed in the public domain by the
# contributors.
#
data_6000322
loop_
_publ_author_name
'Hyeon, K. A.'
'Byeon, S. H.'
_publ_section_title
;
 Synthesis and structure of new layered oxides, (MLa2Ti3O10)-La-II (M =
 Co, Cu, and Zn)
;
_journal_name_full               'Chemistry of Materials'
_journal_page_first              352
_journal_page_last               357
_journal_paper_doi               10.1021/cm980581f
_journal_volume                  11
_journal_year                    1999
_chemical_formula_sum            'La2 O10 Ti3 Zn'
_space_group_crystal_system      tetragonal
_space_group_IT_number           139
_space_group_name_Hall           '-I 4 2'
_space_group_name_H-M_alt        'I 4/m m m'
_cell_angle_alpha                90
_cell_angle_beta                 90
_cell_angle_gamma                90
_cell_formula_units_Z            2
_cell_length_a                   3.8127(1)
_cell_length_b                   3.8127(1)
_cell_length_c                   27.5129(9)
_cell_volume                     399.95
_cod_depositor_comments
;
 Adding atom coordinates after consulting the original publication. Updating
 space group information and adding the symmetry operation list. Adding the
 _cell_formula_units_Z data item.

 Antanas Vaitkus,
 2017-11-20
;
_cod_database_code               6000322
loop_
_space_group_symop_id
_space_group_symop_operation_xyz
1 x,y,z
2 -y,x,z
3 -x,-y,z
4 y,-x,z
5 x,-y,-z
6 y,x,-z
7 -x,y,-z
8 -y,-x,-z
9 -x,-y,-z
10 y,-x,-z
11 x,y,-z
12 -y,x,-z
13 -x,y,z
14 -y,-x,z
15 x,-y,z
16 y,x,z
17 x+1/2,y+1/2,z+1/2
18 -y+1/2,x+1/2,z+1/2
19 -x+1/2,-y+1/2,z+1/2
20 y+1/2,-x+1/2,z+1/2
21 x+1/2,-y+1/2,-z+1/2
22 y+1/2,x+1/2,-z+1/2
23 -x+1/2,y+1/2,-z+1/2
24 -y+1/2,-x+1/2,-z+1/2
25 -x+1/2,-y+1/2,-z+1/2
26 y+1/2,-x+1/2,-z+1/2
27 x+1/2,y+1/2,-z+1/2
28 -y+1/2,x+1/2,-z+1/2
29 -x+1/2,y+1/2,z+1/2
30 -y+1/2,-x+1/2,z+1/2
31 x+1/2,-y+1/2,z+1/2
32 y+1/2,x+1/2,z+1/2
loop_
_atom_site_label
_atom_site_type_symbol
_atom_site_occupancy
_atom_site_fract_x
_atom_site_fract_y
_atom_site_fract_z
_atom_site_B_iso_or_equiv
La La 1 0 0 0.4210(1) 0.73(4)
Zn Zn 0.5 0 0.5 0.25 1.2(1)
Ti(1) Ti 1 0 0 0 0.8(2)
Ti(2) Ti 1 0 0 0.1543(1) 0.6(1)
O(1) O 1 0 0 0.0714(4) 1.3(3)
O(2) O 1 0 0.5 0 2.6(6)
O(3) O 1 0 0 0.2206(3) 0.9(3)
O(4) O 1 0 0.5 0.1404(2) 0.9(2)
