#------------------------------------------------------------------------------
#$Date: 2018-01-23 14:43:58 +0200 (Tue, 23 Jan 2018) $
#$Revision: 205493 $
#$URL: file:///home/coder/svn-repositories/cod/cif/7/03/65/7036562.cif $
#------------------------------------------------------------------------------
#
# This file is available in the Crystallography Open Database (COD),
# http://www.crystallography.net/
#
# All data on this site have been placed in the public domain by the
# contributors.
#
data_7036562
loop_
_publ_author_name
'Cheng, Fangrui'
'Xia, Zhiguo'
'Molokeev, Maxim S.'
'Jing, Xiping'
_publ_section_title
;
 Effects of composition modulation on the luminescence properties of
 Eu(3+) doped Li1-xAgxLu(MoO4)2 solid-solution phosphors.
;
_journal_issue                   41
_journal_name_full
'Dalton transactions (Cambridge, England : 2003)'
_journal_page_first              18078
_journal_page_last               18089
_journal_paper_doi               10.1039/c5dt02760h
_journal_volume                  44
_journal_year                    2015
_chemical_formula_moiety         'Eu Li Mo2 O8'
_chemical_formula_sum            'Eu Li Mo2 O8'
_chemical_formula_weight         478.79
_space_group_IT_number           88
_symmetry_cell_setting           tetragonal
_symmetry_space_group_name_Hall  '-I 4ad'
_symmetry_space_group_name_H-M   'I 41/a :2'
_cell_angle_alpha                90
_cell_angle_beta                 90
_cell_angle_gamma                90
_cell_formula_units_Z            2
_cell_length_a                   5.202625(16)
_cell_length_b                   5.202625(16)
_cell_length_c                   11.338236(45)
_cell_measurement_temperature    300
_cell_volume                     306.8955(18)
_diffrn_ambient_temperature      300
_diffrn_measurement_device_type
;
D8 ADVANCE Bruker
;
_diffrn_radiation_monochromator  none
_diffrn_radiation_probe          x-ray
_diffrn_radiation_type
;
 Cu K\a~1~~2~
;
_exptl_absorpt_coefficient_mu    105.337
_exptl_crystal_density_diffrn    5.181158
_pd_char_colour
;
colourless
;
_pd_meas_2theta_range_inc        0.013
_pd_meas_2theta_range_max        119.978565
_pd_meas_2theta_range_min        5.00656514
_pd_meas_scan_method             step
_pd_proc_ls_pref_orient_corr
;
Anisotropic model of PO. Spherical harmonics 2 ordrer.
 Jarvinen (1993). Application of symmetrized harmonics expansion to correction
of the preferred orientation effect. - J. Appl. Cryst. 26 p525-531.
;
_pd_proc_ls_profile_function     PearsonVII
_pd_proc_ls_prof_R_factor        0.847
_pd_proc_ls_prof_wR_expected     0.418
_pd_proc_ls_prof_wR_factor       1.149
_pd_proc_number_of_points        8844
_pd_spec_mount_mode              reflection
_refine_ls_goodness_of_fit_all   2.748
_refine_ls_R_I_factor            0.34
_refine_ls_shift/su_max          0.01000
_cod_data_source_file            c5dt02760h4.cif
_cod_data_source_block           a
_cod_depositor_comments
'Adding full bibliography for 7036559--7036562.cif.'
_cod_original_cell_volume        306.8955(23)
_cod_original_sg_symbol_Hall
;
-I 4ad
;
_cod_original_sg_symbol_H-M      I41/a
_cod_original_formula_sum
;
Eu Li Mo2 O8
;
_cod_database_code               7036562
loop_
_symmetry_equiv_pos_as_xyz
'x, y, z'
'-x, -y, -z'
'-x, -y+1/2, z'
'-x+1/2, -y, z+1/2'
'-x+1/2, -y+1/2, -z+1/2'
'-y+1/4, x+1/4, -z+1/4'
'-y+1/4, x-1/4, z-1/4'
'-y-1/4, x+1/4, z+1/4'
'-y-1/4, x-1/4, -z-1/4'
'y+1/4, -x+1/4, z+1/4'
'y+1/4, -x-1/4, -z-1/4'
'y-1/4, -x+1/4, -z+1/4'
'y-1/4, -x-1/4, z-1/4'
'x, y+1/2, -z'
'x+1/2, y, -z+1/2'
'x+1/2, y+1/2, z+1/2'
loop_
_atom_site_label
_atom_site_type_symbol
_atom_site_fract_x
_atom_site_fract_y
_atom_site_fract_z
_atom_site_occupancy
_atom_site_B_iso_or_equiv
Li Li 0 0.25 0.625 0.5 0.662(47)
Eu Eu 0 0.25 0.625 0.5 0.662(47)
Mo Mo 0 0.25 0.125 1 0.685(44)
O O 0.24344(46) 0.09932(31) 0.04113(14) 1 1.005(77)
loop_
_diffrn_radiation_wavelength
_diffrn_radiation_wavelength_wt
1.5406 1.0000
1.5443 0.5000
loop_
_geom_angle_atom_site_label_1
_geom_angle_atom_site_label_2
_geom_angle_atom_site_label_3
_geom_angle
_geom_angle_site_symmetry_1
_geom_angle_site_symmetry_3
O Li O 68.897(89) 4_555 5_555
O Li O 73.636(75) 4_555 7_556
O Li O 98.685(71) 4_555 9_556
O Li O 151.91(6) 4_555 13_566
O Li O 76.091(74) 4_555 15_455
O Li O 134.27(17) 4_555 16_455
O Li O 126.65(13) 5_555 7_556
O Li O 78.827(70) 5_555 15_455
O Eu O 68.897(89) 4_555 5_555
O Eu O 73.636(75) 4_555 7_556
O Eu O 98.685(71) 4_555 9_556
O Eu O 151.91(6) 4_555 13_566
O Eu O 76.091(74) 4_555 15_455
O Eu O 134.27(17) 4_555 16_455
O Eu O 126.65(13) 5_555 7_556
O Eu O 78.827(70) 5_555 15_455
O Mo O 114.89(13) 1_555 3_555
O Mo O 106.83(10) 1_555 6_555
loop_
_geom_bond_atom_site_label_1
_geom_bond_atom_site_label_2
_geom_bond_distance
_geom_bond_site_symmetry_2
Li O 2.4472(21) 4_555
Li O 2.4381(19) 5_555
Eu O 2.4472(21) 4_555
Eu O 2.4381(19) 5_555
Mo O 1.7672(20) .
