#------------------------------------------------------------------------------
#$Date: 2017-05-25 04:59:54 +0300 (Thu, 25 May 2017) $
#$Revision: 196966 $
#$URL: file:///home/coder/svn-repositories/cod/cif/7/04/31/7043110.cif $
#------------------------------------------------------------------------------
#
# This file is available in the Crystallography Open Database (COD),
# http://www.crystallography.net/
#
# All data on this site have been placed in the public domain by the
# contributors.
#
data_7043110
loop_
_publ_author_name
'Whittle, Thomas A.'
'Brant, William R.'
'Hester, James R.'
'Gu, Qinfen'
'Schmid, Siegbert'
_publ_section_title
;
 Tailoring phase transition temperatures in perovskites via A-site vacancy
 generation
;
_journal_name_full               'Dalton Trans.'
_journal_paper_doi               10.1039/C7DT00352H
_journal_year                    2017
_chemical_formula_sum            'Nb0.4 O3 Sr0.8 Ti0.54 Zr0.06'
_chemical_formula_weight         186.6
_chemical_name_systematic        ' ?'
_space_group_IT_number           221
_symmetry_cell_setting           cubic
_symmetry_Int_Tables_number      221
_symmetry_space_group_name_Hall  '-P 4 2 3'
_symmetry_space_group_name_H-M   'P m -3 m'
_cell_angle_alpha                90
_cell_angle_beta                 90
_cell_angle_gamma                90
_cell_formula_units_Z            1
_cell_length_a                   3.94300(4)
_cell_length_b                   3.94300(4)
_cell_length_c                   3.94300(4)
_cell_measurement_temperature    293
_cell_volume                     61.3028(11)
_diffrn_ambient_temperature      293
_diffrn_radiation_probe          neutron
_diffrn_radiation_wavelength     1.622
_exptl_absorpt_coefficient_mu    0.007
_exptl_crystal_density_diffrn    5.0541
_exptl_crystal_F_000             85
_pd_instr_location               ' ?'
_pd_meas_2theta_range_max        163.925
_pd_meas_2theta_range_min        2.776
_pd_meas_number_of_points        1418
_pd_proc_2theta_range_max        161.966
_pd_proc_2theta_range_min        6.176
_pd_proc_ls_background_function  '15 Legendre polynoms'
_pd_proc_ls_pref_orient_corr     none
_pd_proc_ls_profile_function     Pseudo-Voigt
_pd_proc_ls_prof_R_factor        0.0403
_pd_proc_ls_prof_wR_expected     0.0099
_pd_proc_ls_prof_wR_factor       0.0556
_refine_ls_goodness_of_fit_all   5.59
_refine_ls_number_constraints    1
_refine_ls_number_parameters     25
_refine_ls_number_restraints     0
_refine_ls_R_factor_all          0.0409
_refine_ls_R_factor_gt           0.0340
_refine_ls_shift/su_max          0.0837
_refine_ls_shift/su_mean         0.0082
_refine_ls_weighting_scheme      sigma
_refine_ls_wR_factor_all         0.0879
_refine_ls_wR_factor_gt          0.0879
_cod_data_source_file            c7dt00352h4.cif
_cod_data_source_block           I
_cod_original_cell_volume        61.3026(10)
_cod_original_sg_symbol_Hall     '-P 4;2;3'
_cod_database_code               7043110
loop_
_space_group_symop_id
_space_group_symop_operation_xyz
1 x,y,z
2 -x,-y,z
3 -x,y,-z
4 x,-y,-z
5 z,x,y
6 z,-x,-y
7 -z,-x,y
8 -z,x,-y
9 y,z,x
10 -y,z,-x
11 y,-z,-x
12 -y,-z,x
13 y,x,-z
14 -y,-x,-z
15 y,-x,z
16 -y,x,z
17 x,z,-y
18 -x,z,y
19 -x,-z,-y
20 x,-z,y
21 z,y,-x
22 z,-y,x
23 -z,y,x
24 -z,-y,-x
25 -x,-y,-z
26 x,y,-z
27 x,-y,z
28 -x,y,z
29 -z,-x,-y
30 -z,x,y
31 z,x,-y
32 z,-x,y
33 -y,-z,-x
34 y,-z,x
35 -y,z,x
36 y,z,-x
37 -y,-x,z
38 y,x,z
39 -y,x,-z
40 y,-x,-z
41 -x,-z,y
42 x,-z,-y
43 x,z,y
44 -x,z,-y
45 -z,-y,x
46 -z,y,-x
47 z,-y,-x
48 z,y,x
loop_
_atom_site_label
_atom_site_type_symbol
_atom_site_fract_x
_atom_site_fract_y
_atom_site_fract_z
_atom_site_adp_type
_atom_site_U_iso_or_equiv
_atom_site_site_symmetry_multiplicity
_atom_site_occupancy
_atom_site_calc_flag
Sr Sr 0.5 0.5 0.5 Uiso 0.0072(5) 1 0.8 d
Ti Ti 0 0 0 Uiso 0.0074(13) 1 0.54 d
Zr Zr 0 0 0 Uiso 0.0074(13) 1 0.06 d
Nb Nb 0 0 0 Uiso 0.0074(13) 1 0.4 d
O O 0 0 0.5 Uiso 0.0098(3) 3 1 d
loop_
_atom_type_symbol
_atom_type_scat_length_neutron
_atom_type_scat_source
Sr 7.020 International_Tables_Vol_C
Ti -3.438 International_Tables_Vol_C
Zr 7.160 International_Tables_Vol_C
Nb 7.054 International_Tables_Vol_C
O 5.803 International_Tables_Vol_C
loop_
_geom_angle_atom_site_label_1
_geom_angle_atom_site_label_2
_geom_angle_atom_site_label_3
_geom_angle_site_symmetry_1
_geom_angle_site_symmetry_3
_geom_angle
O Sr O . 1_565 90.0000(8)
O Sr O . 1_655 90.0000(8)
O Sr O . 1_665 180.0(5)
O Sr O . 5_555 60.0000(4)
O Sr O . 5_556 60.0000(4)
O Sr O . 5_565 120.0000(4)
O Sr O . 5_566 120.0000(4)
O Sr O . 9_555 60.0000(4)
O Sr O . 9_556 60.0000(4)
O Sr O . 9_655 120.0000(4)
O Sr O . 9_656 120.0000(4)
O Sr O 1_565 1_655 180.0(5)
O Sr O 1_565 1_665 90.0000(8)
O Sr O 1_565 5_555 120.0000(4)
O Sr O 1_565 5_556 120.0000(4)
O Sr O 1_565 5_565 60.0000(4)
O Sr O 1_565 5_566 60.0000(4)
O Sr O 1_565 9_555 60.0000(4)
O Sr O 1_565 9_556 60.0000(4)
O Sr O 1_565 9_655 120.0000(4)
O Sr O 1_565 9_656 120.0000(4)
O Sr O 1_655 1_665 90.0000(8)
O Sr O 1_655 5_555 60.0000(4)
O Sr O 1_655 5_556 60.0000(4)
O Sr O 1_655 5_565 120.0000(4)
O Sr O 1_655 5_566 120.0000(4)
O Sr O 1_655 9_555 120.0000(4)
O Sr O 1_655 9_556 120.0000(4)
O Sr O 1_655 9_655 60.0000(4)
O Sr O 1_655 9_656 60.0000(4)
O Sr O 1_665 5_555 120.0000(4)
O Sr O 1_665 5_556 120.0000(4)
O Sr O 1_665 5_565 60.0000(4)
O Sr O 1_665 5_566 60.0000(4)
O Sr O 1_665 9_555 120.0000(4)
O Sr O 1_665 9_556 120.0000(4)
O Sr O 1_665 9_655 60.0000(4)
O Sr O 1_665 9_656 60.0000(4)
O Sr O 5_555 5_556 90.0000(8)
O Sr O 5_555 5_565 90.0000(8)
O Sr O 5_555 5_566 180.0(5)
O Sr O 5_555 9_555 60.0000(4)
O Sr O 5_555 9_556 120.0000(4)
O Sr O 5_555 9_655 60.0000(4)
O Sr O 5_555 9_656 120.0000(4)
O Sr O 5_556 5_565 180.0(5)
O Sr O 5_556 5_566 90.0000(8)
O Sr O 5_556 9_555 120.0000(4)
O Sr O 5_556 9_556 60.0000(4)
O Sr O 5_556 9_655 120.0000(4)
O Sr O 5_556 9_656 60.0000(4)
O Sr O 5_565 5_566 90.0000(8)
O Sr O 5_565 9_555 60.0000(4)
O Sr O 5_565 9_556 120.0000(4)
O Sr O 5_565 9_655 60.0000(4)
O Sr O 5_565 9_656 120.0000(4)
O Sr O 5_566 9_555 120.0000(4)
O Sr O 5_566 9_556 60.0000(4)
O Sr O 5_566 9_655 120.0000(4)
O Sr O 5_566 9_656 60.0000(4)
O Sr O 9_555 9_556 90.0000(8)
O Sr O 9_555 9_655 90.0000(8)
O Sr O 9_555 9_656 180.0(5)
O Sr O 9_556 9_655 180.0(5)
O Sr O 9_556 9_656 90.0000(8)
O Sr O 9_655 9_656 90.0000(8)
O Ti O 1_554 . 180.0(5)
O Ti O 1_554 5_455 90
O Ti O 1_554 5_555 90
O Ti O 1_554 9_545 90
O Ti O 1_554 9_555 90
O Ti O . 5_455 90
O Ti O . 5_555 90
O Ti O . 9_545 90
O Ti O . 9_555 90
O Ti O 5_455 5_555 180.0(5)
O Ti O 5_455 9_545 90
O Ti O 5_455 9_555 90
O Ti O 5_555 9_545 90
O Ti O 5_555 9_555 90
O Ti O 9_545 9_555 180.0(5)
O Zr O 1_554 . 180.0(5)
O Zr O 1_554 5_455 90
O Zr O 1_554 5_555 90
O Zr O 1_554 9_545 90
O Zr O 1_554 9_555 90
O Zr O . 5_455 90
O Zr O . 5_555 90
O Zr O . 9_545 90
O Zr O . 9_555 90
O Zr O 5_455 5_555 180.0(5)
O Zr O 5_455 9_545 90
O Zr O 5_455 9_555 90
O Zr O 5_555 9_545 90
O Zr O 5_555 9_555 90
O Zr O 9_545 9_555 180.0(5)
O Nb O 1_554 . 180.0(5)
O Nb O 1_554 5_455 90
O Nb O 1_554 5_555 90
O Nb O 1_554 9_545 90
O Nb O 1_554 9_555 90
O Nb O . 5_455 90
O Nb O . 5_555 90
O Nb O . 9_545 90
O Nb O . 9_555 90
O Nb O 5_455 5_555 180.0(5)
O Nb O 5_455 9_545 90
O Nb O 5_455 9_555 90
O Nb O 5_555 9_545 90
O Nb O 5_555 9_555 90
O Nb O 9_545 9_555 180.0(5)
loop_
_geom_bond_atom_site_label_1
_geom_bond_atom_site_label_2
_geom_bond_site_symmetry_2
_geom_bond_distance
Sr O . 2.78812(4)
Sr O 1_565 2.78812(4)
Sr O 1_655 2.78812(4)
Sr O 1_665 2.78812(4)
Sr O 5_555 2.78812(4)
Sr O 5_556 2.78812(4)
Sr O 5_565 2.78812(4)
Sr O 5_566 2.78812(4)
Sr O 9_555 2.78812(4)
Sr O 9_556 2.78812(4)
Sr O 9_655 2.78812(4)
Sr O 9_656 2.78812(4)
Ti O 1_554 1.97150(4)
Ti O . 1.97150(4)
Ti O 5_455 1.97150(4)
Ti O 5_555 1.97150(4)
Ti O 9_545 1.97150(4)
Ti O 9_555 1.97150(4)
Zr O 1_554 1.97150(4)
Zr O . 1.97150(4)
Zr O 5_455 1.97150(4)
Zr O 5_555 1.97150(4)
Zr O 9_545 1.97150(4)
Zr O 9_555 1.97150(4)
Nb O 1_554 1.97150(4)
Nb O . 1.97150(4)
Nb O 5_455 1.97150(4)
Nb O 5_555 1.97150(4)
Nb O 9_545 1.97150(4)
Nb O 9_555 1.97150(4)
loop_
_pd_proc_point_id
_pd_proc_2theta_corrected
_pd_proc_intensity_net
_pd_calc_intensity_net
_pd_proc_ls_weight
1 6.0620 1186.23 1145.21 16.33
2 6.1619 1153.14 1143.32 16.08
3 6.2870 1137.92 1140.76 13.05
4 6.4120 1141.62 1138.02 16.12
5 6.5270 1104.60 1135.37 14.27
6 6.6470 1116.00 1132.49 14.16
7 6.7619 1124.39 1129.66 15.99
8 6.8619 1125.58 1127.14 15.99
9 6.9619 1079.01 1124.60 15.68
10 7.0769 1093.44 1121.66 14.20
11 7.1970 1075.37 1118.58 13.91
12 7.3119 1072.55 1115.65 15.62
13 7.4119 1068.52 1113.11 15.58
14 7.5370 1067.88 1109.99 12.72
15 7.6620 1111.06 1106.94 15.40
16 7.7770 1095.27 1104.20 13.69
17 7.8970 1124.02 1101.44 13.86
18 8.0119 1117.97 1098.88 15.45
19 8.1119 1115.85 1096.73 15.43
20 8.2119 1092.53 1094.67 15.27
21 8.3269 1076.60 1092.40 13.56
22 8.4470 1111.58 1090.16 13.77
23 8.5620 1079.39 1088.16 15.18
24 8.6619 1113.72 1086.52 15.42
25 8.7870 1071.34 1084.62 12.35
26 8.9120 1129.32 1082.89 15.89
27 9.0270 1117.95 1081.45 14.08
28 9.1470 1136.04 1080.12 14.31
29 9.2619 1114.51 1078.99 15.78
30 9.3619 1121.25 1078.14 15.83
31 9.4619 1104.40 1077.41 15.70
32 9.5769 1103.64 1076.72 13.98
33 9.6970 1108.03 1076.16 14.14
34 9.8119 1095.24 1075.79 15.64
35 9.9119 1109.97 1075.60 15.75
36 10.0369 1113.70 1075.53 12.89
37 10.1620 1111.32 1075.64 17.06
38 10.2770 1091.05 1075.90 14.91
39 10.3970 1095.55 1076.35 15.30
40 10.5119 1096.97 1076.92 16.99
41 10.6119 1097.50 1077.55 16.92
42 10.7119 1083.67 1078.28 16.80
43 10.8269 1117.35 1079.27 15.13
44 10.9469 1109.62 1080.44 15.39
45 11.0619 1133.45 1081.71 17.26
46 11.1619 1106.65 1082.92 16.99
47 11.2869 1089.50 1084.58 13.79
48 11.4120 1083.58 1086.38 16.55
49 11.5270 1086.91 1088.17 15.08
50 11.6469 1083.46 1090.17 14.58
51 11.7619 1083.84 1092.20 16.55
52 11.8619 1106.72 1094.05 16.75
53 11.9619 1085.79 1095.99 16.56
54 12.0769 1092.43 1098.31 15.10
55 12.1969 1096.36 1100.84 14.70
56 12.3119 1130.51 1103.35 16.93
57 12.4119 1106.48 1105.62 16.77
58 12.5369 1060.97 1108.53 13.39
59 12.6620 1129.44 1111.54 15.92
60 12.7770 1101.07 1114.39 14.01
61 12.8969 1136.76 1117.43 14.34
62 13.0119 1114.99 1120.41 15.84
63 13.1119 1112.36 1123.05 15.82
64 13.2119 1114.26 1125.73 15.82
65 13.3269 1122.94 1128.86 14.16
66 13.4469 1114.44 1132.18 14.20
67 13.5619 1125.18 1135.40 15.89
68 13.6619 1124.83 1138.23 15.90
69 13.7869 1157.61 1141.80 13.16
70 13.9120 1136.44 1145.40 15.98
71 14.0270 1119.47 1148.74 14.25
72 14.1469 1143.22 1152.23 14.30
73 14.2619 1134.40 1155.60 15.98
74 14.3619 1133.35 1158.53 15.97
75 14.4619 1143.16 1161.46 16.03
76 14.5769 1127.23 1164.84 14.29
77 14.6969 1138.53 1168.36 14.26
78 14.8119 1168.04 1171.72 16.21
79 14.9119 1163.43 1174.63 16.18
80 15.0369 1198.35 1178.25 13.41
81 15.1620 1131.98 1181.86 15.97
82 15.2770 1168.85 1185.14 14.47
83 15.3969 1155.04 1188.54 14.48
84 15.5119 1135.23 1191.76 16.00
85 15.6119 1183.75 1194.54 16.33
86 15.7119 1156.55 1197.28 16.14
87 15.8269 1149.56 1200.40 14.34
88 15.9469 1197.42 1203.61 14.75
89 16.0619 1165.94 1206.63 16.21
90 16.1619 1188.76 1209.22 16.37
91 16.2869 1183.40 1212.40 13.33
92 16.4120 1176.81 1215.51 16.63
93 16.5270 1199.38 1218.31 15.01
94 16.6469 1192.40 1221.17 14.98
95 16.7619 1204.88 1223.84 16.83
96 16.8619 1202.21 1226.11 16.81
97 16.9619 1181.74 1228.32 16.67
98 17.0769 1184.54 1230.81 14.93
99 17.1969 1225.83 1233.32 15.20
100 17.3119 1195.30 1235.65 16.76
101 17.4119 1216.51 1237.62 16.91
102 17.5369 1238.49 1239.99 13.94
103 17.6620 1211.55 1242.27 16.77
104 17.7769 1200.52 1244.28 14.96
105 17.8969 1245.41 1246.29 15.18
106 18.0119 1189.05 1248.14 16.62
107 18.1119 1217.43 1249.67 16.81
108 18.2119 1239.53 1251.14 16.96
109 18.3269 1200.88 1252.74 14.96
110 18.4469 1204.73 1254.33 14.94
111 18.5619 1247.61 1255.75 17.02
112 18.6619 1248.13 1256.92 17.02
113 18.7869 1235.08 1258.29 13.83
114 18.9120 1239.44 1259.55 17.30
115 19.0269 1248.87 1260.61 15.45
116 19.1469 1281.37 1261.63 15.84
117 19.2619 1270.76 1262.51 17.52
118 19.3619 1269.00 1263.20 17.52
119 19.4619 1243.56 1263.82 17.35
120 19.5769 1293.30 1264.45 15.74
121 19.6969 1270.54 1265.02 15.76
122 19.8119 1264.49 1265.46 17.49
123 19.9119 1268.72 1265.78 17.51
124 20.0369 1287.73 1266.08 14.42
125 20.1620 1303.02 1266.28 18.13
126 20.2769 1273.96 1266.37 16.05
127 20.3969 1282.36 1266.37 16.07
128 20.5119 1273.17 1266.28 17.92
129 20.6118 1300.85 1266.14 18.11
130 20.7119 1289.62 1265.94 18.04
131 20.8269 1273.58 1265.63 16.06
132 20.9469 1271.32 1265.26 16.00
133 21.0619 1282.30 1264.91 17.99
134 21.1618 1295.62 1264.66 18.09
135 21.2869 1261.33 1264.58 14.57
136 21.4120 1237.67 1264.93 17.13
137 21.5269 1269.24 1265.79 15.61
138 21.6469 1247.52 1267.32 15.32
139 21.7619 1271.59 1269.38 17.38
140 21.8618 1284.17 1271.60 17.47
141 21.9619 1276.02 1274.21 17.41
142 22.0769 1279.82 1277.67 15.68
143 22.1969 1265.66 1281.87 15.44
144 22.3119 1311.90 1286.55 17.66
145 22.4118 1317.66 1291.27 17.70
146 22.5369 1331.58 1298.31 14.53
147 22.6619 1346.76 1307.08 18.22
148 22.7769 1365.43 1317.39 16.27
149 22.8969 1380.43 1331.69 16.64
150 23.0118 1386.80 1350.61 18.49
151 23.1118 1417.38 1372.89 18.68
152 23.2119 1438.52 1401.35 18.82
153 23.3269 1508.44 1439.62 17.11
154 23.4469 1551.82 1477.23 17.65
155 23.5619 1531.57 1496.80 19.43
156 23.6618 1552.49 1490.50 19.57
157 23.7869 1498.44 1449.05 15.69
158 23.9119 1500.92 1383.84 21.12
159 24.0269 1413.50 1323.08 18.15
160 24.1469 1347.87 1274.30 18.07
161 24.2618 1345.12 1245.36 19.99
162 24.3618 1336.06 1231.42 19.91
163 24.4619 1329.93 1223.90 19.89
164 24.5769 1296.03 1219.22 17.40
165 24.6969 1342.28 1216.09 18.04
166 24.8119 1278.26 1213.60 19.49
167 24.9118 1314.47 1211.52 19.76
168 25.0369 1273.77 1208.95 15.89
169 25.1619 1288.48 1206.37 19.28
170 25.2769 1337.85 1203.99 17.79
171 25.3969 1277.55 1201.50 16.96
172 25.5118 1284.79 1199.11 19.29
173 25.6118 1305.98 1197.03 19.41
174 25.7118 1259.69 1194.94 19.08
175 25.8268 1302.80 1192.53 17.59
176 25.9469 1278.16 1190.01 16.97
177 26.0618 1266.12 1187.61 19.15
178 26.1618 1285.49 1185.52 19.25
179 26.2869 1254.87 1182.91 15.55
180 26.4277 1194.60 1179.97 17.05
181 26.5395 1231.78 1177.65 15.53
182 26.6658 1196.61 1175.04 15.24
183 26.7776 1180.78 1172.74 16.97
184 26.8776 1162.45 1170.70 16.84
185 26.9776 1184.42 1168.66 16.98
186 27.0895 1188.93 1166.40 15.26
187 27.2158 1178.86 1163.87 15.13
188 27.3395 1174.51 1161.42 15.16
189 27.4527 1170.97 1159.19 16.88
190 27.5657 1147.23 1157.00 14.92
191 27.6777 1114.32 1154.84 17.64
192 27.7777 1144.05 1152.94 17.90
193 27.8895 1120.20 1150.84 16.04
194 28.0026 1121.35 1148.75 17.71
195 28.1158 1105.14 1146.68 15.48
196 28.2276 1134.69 1144.67 17.79
197 28.3276 1116.85 1142.90 17.66
198 28.4395 1117.14 1140.96 16.03
199 28.5526 1126.57 1139.02 17.77
200 28.6658 1106.23 1137.13 15.52
201 28.7895 1095.07 1135.10 15.87
202 28.9032 1133.68 1133.28 16.20
203 29.0269 1128.25 1131.35 16.58
204 29.1469 1147.55 1129.52 16.54
205 29.2618 1121.47 1127.82 18.38
206 29.3618 1115.74 1126.37 18.33
207 29.4618 1104.54 1124.97 18.25
208 29.5768 1115.06 1123.40 16.49
209 29.6968 1107.00 1121.81 16.23
210 29.8118 1123.28 1120.34 18.38
211 29.9118 1066.81 1119.11 17.95
212 30.0368 1130.53 1117.62 15.07
213 30.1619 1099.93 1116.20 16.81
214 30.2769 1090.18 1114.94 15.13
215 30.3969 1049.69 1113.70 14.54
216 30.5118 1080.37 1112.57 16.66
217 30.6118 1024.45 1111.63 16.26
218 30.7118 1065.43 1110.73 16.56
219 30.8268 1052.64 1109.76 14.87
220 30.9468 1068.83 1108.80 14.68
221 31.0618 1062.76 1107.95 16.56
222 31.1618 1097.47 1107.27 16.82
223 31.2868 1070.23 1106.47 13.55
224 31.4113 1059.92 1105.76 16.22
225 31.5113 1056.80 1105.24 16.17
226 31.6261 1065.39 1104.71 14.64
227 31.7362 1030.19 1104.28 15.98
228 31.8463 1058.42 1103.95 14.37
229 31.9612 1056.14 1103.79 16.18
230 32.0612 1042.92 1103.92 16.09
231 32.1761 1027.77 1104.59 14.38
232 32.2862 1047.12 1107.22 16.13
233 32.3963 1082.91 1109.69 14.57
234 32.5262 1091.25 1114.21 14.83
235 32.6422 1112.47 1119.91 14.91
236 32.7561 1099.13 1127.22 16.70
237 32.8701 1108.75 1136.60 14.96
238 32.9810 1160.02 1148.44 17.18
239 33.0919 1198.30 1164.22 15.70
240 33.2060 1158.36 1186.32 17.16
241 33.3060 1183.52 1211.53 17.33
242 33.4201 1218.59 1245.61 15.67
243 33.5310 1256.09 1278.12 17.86
244 33.6419 1212.92 1299.45 15.76
245 33.7701 1218.99 1296.91 15.63
246 33.8877 1195.02 1266.46 15.41
247 34.0007 1122.39 1222.37 16.53
248 34.1155 1104.89 1178.26 14.69
249 34.2256 1085.06 1146.74 16.26
250 34.3358 1078.83 1128.08 14.49
251 34.4506 1078.19 1119.20 16.23
252 34.5506 1074.37 1116.57 16.19
253 34.6655 1077.57 1116.25 14.51
254 34.7756 1074.23 1117.00 16.19
255 34.8858 1062.72 1118.11 14.39
256 35.0155 1068.32 1119.58 14.47
257 35.1283 1089.13 1120.96 16.27
258 35.2421 1059.31 1122.42 14.29
259 35.3559 1086.90 1123.95 16.21
260 35.4558 1057.18 1125.34 16.00
261 35.5696 1080.04 1126.99 14.48
262 35.6808 1074.13 1128.66 16.13
263 35.7920 1090.72 1130.40 14.51
264 35.9197 1107.51 1132.46 14.67
265 36.0309 1092.93 1134.32 16.27
266 36.1420 1112.73 1136.23 14.66
267 36.2697 1134.81 1138.50 14.86
268 36.3701 1085.42 1140.34 18.57
269 36.4869 1102.36 1142.54 13.24
270 36.6118 1110.10 1144.96 16.26
271 36.7268 1124.25 1147.25 14.63
272 36.8468 1140.28 1149.71 14.75
273 36.9618 1188.75 1152.12 16.84
274 37.0768 1212.70 1154.60 15.20
275 37.1968 1229.05 1157.26 15.31
276 37.3118 1230.77 1159.87 17.12
277 37.4118 1246.09 1162.20 17.22
278 37.5368 1282.00 1165.18 14.26
279 37.6619 1304.94 1168.25 18.02
280 37.7768 1280.91 1171.14 15.92
281 37.8968 1194.75 1174.24 15.49
282 38.0118 1190.96 1177.30 17.21
283 38.1117 1168.77 1180.03 17.06
284 38.2118 1154.31 1182.83 16.95
285 38.3268 1158.61 1186.14 15.12
286 38.4468 1168.94 1189.72 15.31
287 38.5618 1180.16 1193.26 17.14
288 38.6618 1163.58 1196.46 17.01
289 38.7868 1146.95 1200.61 13.79
290 38.9119 1157.73 1204.96 16.85
291 39.0268 1135.64 1209.17 15.00
292 39.1468 1181.14 1213.82 15.14
293 39.2618 1170.45 1219.62 16.94
294 39.3617 1141.83 1224.03 16.74
295 39.4618 1147.68 1228.75 16.78
296 39.5768 1194.18 1234.64 15.38
297 39.6968 1223.56 1241.45 15.39
298 39.8118 1223.78 1248.96 17.32
299 39.9117 1206.69 1256.95 17.20
300 40.0368 1241.72 1271.84 14.24
301 40.1619 1266.54 1302.37 17.08
302 40.2768 1319.12 1367.50 15.62
303 40.3968 1414.55 1521.91 16.19
304 40.5118 1676.08 1826.45 19.76
305 40.6117 2095.64 2288.70 22.16
306 40.7118 2761.30 3008.72 25.50
307 40.8268 4090.88 4252.33 27.87
308 40.9468 6105.94 6183.05 34.01
309 41.0618 9035.02 8878.08 46.31
310 41.1617 12625.40 12112.30 54.77
311 41.2868 19532.40 17443.50 55.67
312 41.4202 26640.60 23931.60 81.45
313 41.5335 29936.00 28329.80 76.94
314 41.6568 29820.10 29560.20 77.40
315 41.7701 26279.90 26389.10 80.60
316 41.8701 20472.40 20966.40 70.78
317 41.9701 14042.50 14778.40 58.32
318 42.0834 8668.69 8754.43 40.68
319 42.2068 4690.62 4519.35 30.18
320 42.3334 2233.67 2431.22 20.60
321 42.4452 1780.44 1714.48 20.67
322 42.5567 1674.67 1467.44 18.01
323 42.6726 1663.27 1389.21 20.44
324 42.7726 1611.97 1366.71 20.10
325 42.8864 1590.09 1355.26 17.87
326 42.9975 1495.14 1348.84 19.38
327 43.1087 1462.21 1344.58 17.14
328 43.2225 1412.17 1341.67 18.83
329 43.3225 1376.66 1340.01 18.60
330 43.4364 1416.78 1338.90 16.87
331 43.5475 1394.93 1338.46 18.71
332 43.6587 1409.59 1338.51 16.81
333 43.7864 1368.20 1339.05 16.57
334 43.9021 1419.40 1339.90 16.77
335 44.0143 1383.35 1340.99 18.49
336 44.1287 1382.48 1342.32 16.49
337 44.2391 1377.21 1343.77 18.44
338 44.3497 1419.30 1345.38 16.77
339 44.4642 1416.92 1347.17 18.70
340 44.5642 1426.04 1348.82 18.75
341 44.6787 1454.45 1350.82 16.93
342 44.7892 1494.70 1352.82 19.22
343 44.8997 1511.89 1354.91 17.30
344 45.0287 1576.54 1357.43 17.63
345 45.1425 1626.95 1359.74 18.14
346 45.2553 1611.39 1362.09 20.18
347 45.3689 1586.91 1364.54 18.00
348 45.4801 1549.71 1367.01 19.81
349 45.5915 1502.89 1369.57 17.39
350 45.7052 1535.36 1372.30 19.75
351 45.8052 1491.43 1374.78 19.44
352 45.9189 1421.99 1377.71 17.07
353 46.0302 1376.47 1380.74 18.67
354 46.1415 1399.81 1383.94 16.78
355 46.2689 1416.99 1387.88 17.03
356 46.3862 1445.59 1391.83 19.52
357 46.5059 1398.55 1396.26 17.50
358 46.6171 1436.02 1400.85 19.76
359 46.7171 1407.07 1405.47 19.58
360 46.8284 1418.55 1411.40 17.51
361 46.9421 1421.42 1418.83 19.67
362 47.0558 1467.38 1429.41 17.95
363 47.1784 1492.08 1450.87 18.01
364 47.2921 1518.17 1497.28 20.39
365 47.4058 1619.43 1608.06 18.93
366 47.5285 1898.61 1885.05 20.53
367 47.6487 2416.16 2456.77 24.60
368 47.7611 3332.00 3440.57 26.47
369 47.8863 5346.42 5322.24 32.60
370 47.9986 7963.25 7993.48 45.05
371 48.1110 12148.40 11758.40 50.40
372 48.2236 18165.80 16347.00 67.78
373 48.3236 21941.40 20286.20 74.49
374 48.4363 23386.80 23070.40 67.98
375 48.5486 21972.80 22709.70 74.67
376 48.6610 18644.30 19081.90 62.31
377 48.7863 11720.50 13049.40 48.06
378 48.9015 7516.14 7923.02 38.64
379 49.0268 4134.67 4221.59 27.74
380 49.1467 2346.23 2464.89 21.22
381 49.2617 1829.85 1789.88 20.74
382 49.3617 1731.35 1578.75 20.20
383 49.4617 1625.51 1503.38 19.56
384 49.5767 1628.27 1472.41 17.38
385 49.6967 1563.60 1458.01 17.30
386 49.8117 1577.94 1449.23 19.29
387 49.9117 1537.61 1443.41 19.04
388 50.0367 1486.56 1437.63 15.29
389 50.1618 1490.94 1433.05 19.69
390 50.2768 1517.32 1429.63 17.72
391 50.3967 1496.06 1426.65 17.68
392 50.5117 1469.83 1424.24 19.54
393 50.6117 1424.09 1422.41 19.23
394 50.7117 1455.58 1420.78 19.45
395 50.8267 1437.81 1419.11 17.25
396 50.9467 1442.89 1417.54 17.36
397 51.0617 1457.83 1416.17 19.46
398 51.1617 1439.93 1415.07 19.33
399 51.2867 1408.15 1413.77 15.62
400 51.4293 1404.94 1411.29 19.25
401 51.5408 1412.48 1410.28 17.26
402 51.6678 1391.37 1409.15 17.12
403 51.7792 1438.99 1408.17 19.47
404 51.8792 1407.11 1407.31 19.26
405 51.9792 1405.10 1406.44 19.24
406 52.0907 1434.49 1405.48 17.41
407 52.2178 1438.85 1404.38 17.40
408 52.3407 1519.27 1403.30 17.92
409 52.4543 1481.84 1402.30 19.75
410 52.5677 1511.99 1401.28 17.82
411 52.6956 1474.77 1400.11 19.44
412 52.7956 1438.30 1399.18 19.19
413 52.9103 1405.73 1398.11 16.91
414 53.0205 1364.67 1397.06 18.67
415 53.1308 1393.04 1395.99 16.92
416 53.2455 1312.82 1394.88 18.30
417 53.3455 1336.03 1393.92 18.49
418 53.4603 1255.72 1392.88 15.99
419 53.5705 1260.91 1392.10 17.95
420 53.6808 1279.73 1391.94 16.21
421 53.8103 1245.52 1393.89 15.92
422 53.9180 1297.47 1399.39 15.92
423 54.0296 1295.07 1412.14 17.65
424 54.1415 1309.69 1436.61 15.82
425 54.2544 1400.06 1477.44 18.35
426 54.3674 1437.29 1534.69 16.70
427 54.4795 1524.89 1597.99 19.17
428 54.5795 1555.45 1642.87 19.35
429 54.6915 1576.97 1658.15 17.36
430 54.8045 1538.07 1625.33 19.24
431 54.9174 1465.82 1557.67 16.85
432 55.0416 1391.35 1477.25 16.29
433 55.1545 1375.26 1422.38 16.10
434 55.2633 1340.18 1391.09 17.65
435 55.3779 1310.66 1375.05 15.62
436 55.4882 1338.69 1368.27 17.66
437 55.5985 1320.48 1364.88 15.66
438 55.7132 1302.56 1362.50 17.41
439 55.8132 1303.49 1360.68 17.40
440 55.9279 1277.23 1358.67 15.41
441 56.0382 1252.53 1356.76 17.08
442 56.1485 1310.84 1354.85 15.60
443 56.2779 1241.64 1352.61 15.20
444 56.3920 1276.06 1350.62 17.41
445 56.5076 1259.11 1348.61 15.73
446 56.6207 1291.11 1346.62 17.73
447 56.7207 1261.46 1344.86 17.52
448 56.8338 1261.63 1342.85 15.62
449 56.9457 1243.34 1340.85 17.41
450 57.0575 1219.50 1338.85 15.48
451 57.1839 1238.73 1336.57 15.47
452 57.2957 1256.13 1334.54 17.50
453 57.4074 1215.61 1332.50 15.46
454 57.5339 1244.99 1330.19 15.50
455 57.6390 1235.90 1328.25 20.07
456 57.7460 1233.44 1326.28 15.47
457 57.8665 1232.94 1324.05 15.29
458 57.9811 1210.45 1320.94 17.05
459 58.0958 1236.38 1318.82 15.50
460 58.2062 1200.49 1316.79 16.96
461 58.3165 1226.71 1314.74 15.25
462 58.4459 1214.85 1312.35 15.36
463 58.5562 1225.13 1310.31 17.15
464 58.6665 1173.45 1308.27 14.93
465 58.7959 1193.80 1305.88 15.21
466 58.8972 1257.50 1304.01 19.39
467 59.0094 1210.57 1301.96 16.62
468 59.1351 1232.52 1299.68 17.59
469 59.2471 1222.60 1297.70 19.12
470 59.3593 1218.96 1295.81 16.68
471 59.4722 1227.46 1294.24 19.14
472 59.5722 1215.88 1293.59 19.10
473 59.6851 1242.76 1294.98 17.62
474 59.7972 1223.76 1301.15 19.14
475 59.9093 1253.08 1316.15 16.92
476 60.0351 1305.84 1348.56 18.04
477 60.1509 1399.69 1392.85 17.77
478 60.2767 1505.75 1443.85 19.29
479 60.3967 1529.91 1471.67 18.47
480 60.5116 1513.37 1461.24 21.08
481 60.6116 1430.18 1424.31 20.50
482 60.7116 1380.23 1375.81 20.20
483 60.8267 1293.65 1325.20 17.85
484 60.9467 1223.45 1290.25 16.60
485 61.0617 1238.06 1272.90 19.16
486 61.1616 1226.84 1265.65 19.14
487 61.2867 1223.64 1261.11 15.53
488 61.4117 1268.21 1258.27 19.37
489 61.5267 1220.99 1256.05 16.61
490 61.6467 1258.94 1253.86 17.75
491 61.7616 1242.58 1251.81 19.21
492 61.8616 1259.81 1250.07 19.28
493 61.9616 1267.60 1248.34 19.45
494 62.0767 1248.50 1246.39 16.82
495 62.1967 1242.84 1244.39 17.60
496 62.3117 1254.76 1242.51 19.41
497 62.4116 1238.83 1240.89 19.24
498 62.5367 1286.93 1238.90 15.98
499 62.6617 1305.88 1238.94 20.40
500 62.7767 1342.04 1237.22 18.76
501 62.8967 1315.50 1235.46 17.93
502 63.0116 1304.27 1233.81 20.33
503 63.1116 1353.97 1232.39 20.70
504 63.2116 1360.19 1231.00 20.85
505 63.3266 1297.09 1229.43 18.42
506 63.4467 1307.09 1227.83 17.94
507 63.5617 1304.15 1226.33 20.38
508 63.6616 1275.78 1225.05 20.18
509 63.7867 1264.76 1223.49 16.39
510 63.9117 1253.79 1221.97 18.64
511 64.0267 1241.23 1220.59 16.50
512 64.1467 1246.83 1219.22 16.71
513 64.2616 1268.62 1217.94 18.77
514 64.3616 1236.15 1216.85 18.52
515 64.4616 1236.98 1215.80 18.53
516 64.5766 1237.17 1214.63 16.49
517 64.6967 1246.43 1213.45 16.71
518 64.8116 1245.55 1212.36 18.59
519 64.9116 1251.13 1211.45 18.61
520 65.0367 1255.77 1210.36 15.23
521 65.1497 1251.83 1209.41 18.11
522 65.2497 1265.95 1208.62 18.19
523 65.3623 1224.44 1207.77 15.83
524 65.4746 1213.63 1206.96 17.80
525 65.5871 1269.86 1206.20 16.49
526 65.6996 1289.62 1205.49 18.37
527 65.7997 1303.22 1204.90 18.48
528 65.9123 1303.17 1204.29 16.33
529 66.0246 1268.83 1203.73 18.21
530 66.1370 1256.92 1203.23 16.40
531 66.2623 1265.07 1202.73 16.08
532 66.3747 1290.69 1202.34 17.99
533 66.4871 1223.17 1202.02 15.39
534 66.5997 1199.72 1201.76 16.96
535 66.6996 1227.14 1201.58 17.18
536 66.8122 1226.35 1201.45 15.28
537 66.9246 1243.60 1201.39 17.28
538 67.0370 1232.33 1201.40 15.45
539 67.1623 1203.17 1201.51 15.14
540 67.2747 1195.87 1201.70 16.94
541 67.3870 1213.12 1201.98 15.33
542 67.5123 1204.22 1202.41 15.14
543 67.6223 1245.76 1202.89 20.51
544 67.7295 1237.02 1203.47 15.85
545 67.8509 1220.99 1204.28 15.82
546 67.9652 1224.17 1205.17 17.67
547 68.0794 1226.04 1206.22 15.79
548 68.1902 1238.64 1207.40 17.78
549 68.3009 1254.87 1208.77 16.03
550 68.4295 1238.32 1210.62 15.87
551 68.5402 1253.14 1212.48 17.88
552 68.6509 1246.68 1214.62 15.98
553 68.7795 1251.45 1217.52 15.94
554 68.8850 1258.85 1220.29 20.65
555 68.9934 1237.51 1223.58 15.83
556 69.1181 1234.62 1228.03 15.69
557 69.2307 1253.65 1232.81 17.75
558 69.3433 1273.16 1238.49 16.06
559 69.4557 1294.02 1245.29 18.03
560 69.5681 1284.05 1253.52 16.00
561 69.6933 1328.72 1264.97 16.40
562 69.8057 1304.79 1277.99 18.09
563 69.9181 1333.58 1294.75 16.31
564 70.0433 1332.75 1321.00 16.43
565 70.1522 1428.46 1360.05 18.53
566 70.2653 1532.35 1455.05 17.19
567 70.3890 1878.65 1785.16 19.05
568 70.5021 2561.68 2705.41 24.95
569 70.6152 4481.61 4988.91 29.62
570 70.7271 8497.39 9456.44 45.65
571 70.8271 14805.10 15420.50 60.35
572 70.9391 22646.10 22818.30 67.03
573 71.0521 26283.70 27772.00 80.94
574 71.1652 25833.20 27179.40 71.72
575 71.2891 21063.20 20604.50 64.47
576 71.3968 12953.20 13289.40 55.52
577 71.5041 7730.12 7422.75 48.95
578 71.6175 4583.85 3770.63 34.35
579 71.7290 2734.98 2173.37 28.85
580 71.8405 2055.28 1601.97 22.00
581 71.9540 1832.50 1421.27 23.91
582 72.0540 1721.88 1365.39 23.12
583 72.1675 1618.77 1334.35 20.53
584 72.2790 1554.16 1314.99 21.97
585 72.3905 1470.12 1300.91 18.67
586 72.5175 1389.70 1289.04 19.11
587 72.6290 1363.32 1281.23 20.66
588 72.7406 1354.77 1275.22 18.09
589 72.8540 1373.57 1270.54 20.87
590 72.9540 1346.98 1267.36 20.67
591 73.0675 1371.10 1264.58 19.04
592 73.1790 1388.20 1262.56 20.90
593 73.2905 1343.77 1261.11 18.06
594 73.4175 1323.15 1260.03 18.69
595 73.5290 1298.45 1259.51 20.23
596 73.6405 1277.35 1259.30 17.49
597 73.7675 1265.65 1259.41 18.28
598 73.8699 1243.66 1259.72 20.38
599 73.9867 1268.78 1260.28 14.63
600 74.1116 1286.99 1261.10 18.03
601 74.2266 1299.60 1262.04 16.26
602 74.3466 1261.55 1263.17 15.91
603 74.4616 1287.97 1264.40 18.03
604 74.5766 1257.00 1265.75 15.89
605 74.6966 1287.19 1267.28 16.18
606 74.8116 1260.63 1268.87 17.85
607 74.9116 1281.37 1270.34 17.99
608 75.0366 1289.90 1272.29 14.73
609 75.1617 1349.52 1274.41 18.43
610 75.2766 1371.41 1276.59 16.68
611 75.3966 1372.78 1279.60 16.58
612 75.5116 1399.80 1284.89 18.79
613 75.6116 1423.19 1294.88 18.93
614 75.7116 1415.47 1315.35 18.87
615 75.8266 1431.24 1358.77 17.04
616 75.9466 1497.65 1424.77 17.32
617 76.0616 1535.59 1485.21 19.68
618 76.1616 1566.13 1508.23 19.87
619 76.2866 1534.10 1480.52 16.04
620 76.3964 1435.01 1423.61 19.42
621 76.4964 1369.99 1372.32 18.99
622 76.6083 1324.38 1333.19 16.82
623 76.7213 1306.31 1314.46 18.53
624 76.8344 1313.18 1308.67 16.50
625 76.9463 1283.76 1308.42 18.36
626 77.0463 1309.31 1309.74 18.57
627 77.1583 1318.99 1311.71 16.78
628 77.2713 1398.39 1313.87 19.16
629 77.3844 1390.04 1316.12 16.98
630 77.5083 1464.40 1318.64 17.68
631 77.6322 1427.92 1321.22 16.99
632 77.7561 1462.44 1323.84 17.46
633 77.8810 1449.52 1326.51 16.99
634 77.9935 1395.94 1328.94 18.85
635 78.0935 1380.69 1334.58 18.75
636 78.1935 1350.37 1336.87 18.55
637 78.3060 1311.06 1339.45 16.50
638 78.4310 1299.48 1342.35 16.08
639 78.5560 1301.32 1345.27 16.46
640 78.6686 1312.96 1347.92 18.31
641 78.7809 1293.34 1350.58 16.05
642 78.9088 1283.65 1353.63 17.16
643 79.0232 1319.39 1356.38 15.54
644 79.1443 1328.86 1359.30 15.64
645 79.2587 1301.28 1362.08 17.28
646 79.3587 1306.68 1364.52 17.31
647 79.4587 1315.67 1366.98 17.38
648 79.5732 1318.10 1369.81 15.53
649 79.6943 1346.70 1372.83 15.74
650 79.8232 1299.57 1374.21 15.42
651 79.9338 1300.73 1377.08 17.28
652 80.0442 1328.45 1379.98 15.63
653 80.1481 1273.73 1382.77 17.23
654 80.2481 1245.53 1385.56 17.02
655 80.3603 1230.15 1389.05 15.14
656 80.4730 1269.77 1393.95 17.19
657 80.5857 1293.42 1403.26 15.52
658 80.6980 1294.47 1422.84 17.36
659 80.7980 1310.78 1454.00 17.47
660 80.9103 1341.10 1502.97 15.82
661 81.0230 1371.75 1550.35 17.88
662 81.1357 1364.41 1569.11 15.94
663 81.2603 1311.49 1543.17 15.64
664 81.3764 1341.14 1496.73 15.82
665 81.5010 1306.17 1454.96 15.62
666 81.6217 1322.69 1434.34 15.71
667 81.7363 1296.06 1428.40 17.40
668 81.8362 1322.22 1428.44 17.58
669 81.9363 1342.41 1430.29 17.70
670 82.0509 1343.58 1433.12 15.85
671 82.1717 1363.50 1436.38 15.96
672 82.3009 1310.38 1440.01 15.64
673 82.4113 1323.69 1443.23 17.59
674 82.5216 1346.78 1446.54 15.86
675 82.6490 1325.93 1450.50 16.73
676 82.7618 1341.99 1454.13 15.22
677 82.8861 1356.72 1458.29 14.99
678 82.9989 1343.35 1462.24 16.81
679 83.0989 1386.85 1467.44 17.12
680 83.1989 1342.44 1471.29 16.86
681 83.3117 1368.20 1475.87 15.36
682 83.4361 1348.00 1481.25 14.93
683 83.5617 1366.14 1487.12 15.37
684 83.6740 1381.00 1492.81 17.08
685 83.7860 1347.44 1499.00 14.93
686 83.9148 1391.87 1506.89 16.60
687 84.0287 1385.83 1514.72 14.76
688 84.1507 1391.78 1524.25 14.95
689 84.2647 1399.26 1534.50 16.66
690 84.3646 1378.04 1544.85 16.55
691 84.4647 1435.11 1556.84 16.89
692 84.5787 1425.91 1573.05 14.97
693 84.7007 1453.44 1594.42 15.27
694 84.8287 1491.43 1623.16 15.32
695 84.9398 1499.48 1655.70 17.27
696 85.0506 1529.74 1699.27 15.67
697 85.1657 1706.83 1769.64 19.41
698 85.2657 1937.06 1896.24 20.71
699 85.3798 2372.11 2321.36 20.63
700 85.4906 3305.99 3653.46 27.17
701 85.6014 5898.36 7200.82 32.35
702 85.7156 13266.90 14642.60 54.50
703 85.8156 23977.40 23925.50 73.82
704 85.9298 32838.30 33663.00 78.39
705 86.0406 34534.60 36200.60 89.44
706 86.1514 29599.70 29864.50 73.30
707 86.2798 18207.30 17722.20 57.60
708 86.3867 9869.76 9484.75 44.19
709 86.4972 5879.71 4683.16 38.76
710 86.6093 3573.27 2675.44 27.33
711 86.7221 2625.38 2022.03 26.10
712 86.8350 2299.66 1823.74 21.68
713 86.9472 2180.38 1745.97 23.86
714 87.0472 2051.54 1704.91 23.15
715 87.1593 1929.13 1672.13 20.24
716 87.2721 1805.03 1647.75 21.62
717 87.3850 1721.52 1629.28 18.68
718 87.5093 1662.81 1613.87 18.78
719 87.6308 1643.14 1602.43 17.69
720 87.7551 1594.70 1593.50 17.82
721 87.8787 1601.76 1586.71 17.19
722 87.9918 1698.41 1581.94 20.18
723 88.0918 1628.04 1578.66 19.75
724 88.1918 1646.20 1576.13 19.88
725 88.3050 1643.24 1574.01 18.09
726 88.4287 1696.86 1572.51 17.70
727 88.5550 1688.46 1571.77 18.34
728 88.6669 1707.93 1571.73 20.28
729 88.7786 1691.98 1572.26 17.67
730 88.9063 1697.23 1573.60 18.68
731 89.0202 1669.53 1575.49 16.47
732 89.1423 1638.02 1578.35 16.51
733 89.2562 1648.70 1581.95 18.40
734 89.3562 1604.93 1586.01 18.16
735 89.4562 1669.95 1591.10 18.53
736 89.5701 1671.21 1598.54 16.49
737 89.6923 1648.56 1609.12 16.58
738 89.8201 1670.90 1624.31 16.48
739 89.9313 1660.53 1642.86 18.47
740 90.0422 1745.02 1671.33 17.04
741 90.1616 1778.93 1738.50 19.82
742 90.2766 2009.54 1948.56 18.83
743 90.3965 2534.07 2698.15 21.19
744 90.5115 4417.73 4635.49 31.24
745 90.6115 8184.37 7739.82 42.67
746 90.7115 12799.10 11733.40 53.64
747 90.8265 15212.00 15329.80 52.41
748 90.9465 14178.00 15073.10 50.67
749 91.0615 10318.40 11212.00 48.06
750 91.1615 6574.24 7266.72 38.20
751 91.2865 3884.48 3814.68 23.87
752 91.4177 2641.67 2250.23 24.36
753 91.5315 2102.41 1827.24 19.42
754 91.6539 1871.18 1696.89 18.32
755 91.7676 1791.75 1654.33 20.04
756 91.8676 1753.16 1632.90 19.83
757 91.9676 1734.01 1617.41 19.71
758 92.0814 1700.71 1604.06 17.46
759 92.2039 1742.30 1593.13 17.68
760 92.3314 1685.38 1584.36 17.38
761 92.4427 1613.61 1578.27 19.02
762 92.5538 1603.47 1573.26 16.95
763 92.6677 1613.41 1568.96 18.79
764 92.7677 1587.84 1565.74 18.63
765 92.8814 1600.24 1562.56 16.69
766 92.9926 1596.88 1559.86 18.69
767 93.1039 1596.24 1557.48 16.75
768 93.2176 1626.68 1555.31 18.87
769 93.3176 1664.10 1553.62 19.08
770 93.4314 1626.95 1551.83 16.83
771 93.5426 1589.78 1550.22 18.63
772 93.6539 1601.60 1548.73 16.78
773 93.7815 1624.53 1547.14 16.81
774 93.8990 1629.49 1545.77 17.20
775 94.0265 1645.47 1544.37 17.21
776 94.1465 1673.76 1539.84 17.59
777 94.2615 1683.66 1538.79 19.58
778 94.3615 1745.30 1537.92 19.95
779 94.4615 1744.76 1537.08 19.93
780 94.5765 1817.00 1536.15 18.08
781 94.6965 1795.89 1535.24 18.22
782 94.8115 1750.53 1534.43 19.99
783 94.9115 1737.20 1533.82 19.90
784 95.0365 1736.74 1533.36 16.25
785 95.1559 1670.09 1534.22 19.85
786 95.2559 1619.52 1538.36 19.54
787 95.3697 1629.73 1552.43 17.48
788 95.4807 1583.15 1581.35 19.32
789 95.5919 1588.20 1621.42 17.35
790 95.7058 1552.21 1652.24 19.13
791 95.8058 1551.72 1649.79 19.13
792 95.9197 1553.07 1614.95 17.07
793 96.0307 1548.23 1573.44 19.12
794 96.1419 1547.19 1543.94 17.14
795 96.2697 1512.33 1527.94 16.84
796 96.3798 1517.58 1522.84 16.33
797 96.4907 1516.34 1520.57 18.02
798 96.6038 1521.01 1519.07 16.04
799 96.7156 1479.15 1517.80 17.80
800 96.8275 1480.45 1516.60 16.04
801 96.9406 1511.01 1515.43 18.00
802 97.0406 1502.37 1514.41 17.95
803 97.1538 1501.28 1513.28 15.93
804 97.2656 1494.91 1512.16 17.90
805 97.3775 1487.38 1511.05 16.08
806 97.5038 1513.48 1509.81 16.00
807 97.6216 1459.58 1508.64 17.42
808 97.7419 1454.94 1507.46 15.32
809 97.8526 1453.42 1506.37 17.10
810 97.9525 1444.31 1505.38 17.05
811 98.0633 1462.43 1504.29 15.33
812 98.1776 1447.37 1503.16 17.07
813 98.2918 1429.76 1502.03 15.19
814 98.4133 1479.15 1500.84 15.42
815 98.5276 1420.49 1499.71 16.90
816 98.6418 1436.43 1498.60 15.22
817 98.7633 1467.52 1495.90 15.36
818 98.8955 1472.98 1494.68 17.66
819 99.0063 1444.22 1493.67 15.59
820 99.1348 1426.37 1492.52 15.61
821 99.2454 1427.66 1491.55 17.39
822 99.3562 1417.15 1490.62 15.42
823 99.4705 1430.05 1489.71 17.40
824 99.5705 1453.38 1488.98 17.55
825 99.6848 1464.29 1488.25 15.82
826 99.7955 1435.39 1487.72 17.44
827 99.9062 1467.72 1487.56 15.71
828 100.0349 1498.63 1489.24 16.01
829 100.1512 1490.64 1497.81 16.39
830 100.2643 1518.60 1525.69 18.72
831 100.3787 1623.98 1590.63 17.39
832 100.4892 1751.82 1685.88 20.08
833 100.5998 1783.18 1768.55 18.06
834 100.7143 1752.74 1772.61 20.09
835 100.8143 1684.80 1703.21 19.71
836 100.9287 1556.24 1600.64 17.02
837 101.0392 1512.74 1528.45 18.67
838 101.1498 1473.56 1492.36 16.42
839 101.2787 1426.23 1477.30 16.29
840 101.3963 1423.38 1472.72 15.74
841 101.5099 1400.99 1470.38 17.47
842 101.6245 1405.64 1468.56 15.46
843 101.7347 1417.19 1467.02 17.56
844 101.8451 1394.66 1465.59 15.72
845 101.9598 1400.47 1464.19 17.46
846 102.0598 1402.19 1463.03 17.49
847 102.1745 1385.59 1461.75 15.36
848 102.2848 1395.84 1460.55 17.41
849 102.3951 1375.50 1459.38 15.62
850 102.5245 1362.69 1458.04 15.23
851 102.6414 1449.52 1456.86 16.88
852 102.7552 1430.13 1455.72 18.72
853 102.8695 1431.86 1454.60 17.11
854 102.9800 1420.45 1453.54 18.69
855 103.0907 1402.09 1452.48 16.27
856 103.2051 1410.86 1451.41 18.60
857 103.3051 1390.12 1450.48 18.47
858 103.4195 1418.39 1449.42 17.06
859 103.5300 1404.36 1448.42 18.58
860 103.6407 1412.42 1447.43 16.35
861 103.7695 1429.08 1446.30 17.11
862 103.8809 1418.89 1447.08 19.38
863 103.9928 1402.15 1446.18 17.78
864 104.1068 1414.27 1445.28 20.06
865 104.2067 1382.67 1444.51 19.83
866 104.3208 1387.10 1443.64 17.84
867 104.4317 1426.91 1442.82 20.17
868 104.5427 1412.64 1442.01 17.85
869 104.6708 1420.58 1441.10 18.06
870 104.7817 1402.19 1440.33 19.98
871 104.8927 1419.89 1439.58 17.90
872 105.0208 1414.64 1438.74 18.02
873 105.1193 1423.36 1438.11 19.59
874 105.2328 1439.09 1437.41 17.64
875 105.3558 1439.63 1436.67 17.60
876 105.4692 1394.66 1436.02 19.39
877 105.5827 1396.96 1435.38 17.39
878 105.6942 1454.39 1434.79 19.81
879 105.7942 1451.84 1434.27 19.79
880 105.9058 1430.50 1433.73 17.55
881 106.0192 1429.25 1433.20 19.63
882 106.1327 1417.19 1432.69 17.51
883 106.2559 1438.43 1432.19 17.60
884 106.3722 1430.55 1431.74 19.35
885 106.4900 1447.12 1431.33 17.04
886 106.6003 1452.43 1430.97 19.20
887 106.7002 1487.34 1430.69 19.42
888 106.8106 1469.00 1430.40 17.37
889 106.9252 1508.09 1430.16 19.58
890 107.0399 1506.21 1429.96 17.39
891 107.1606 1505.37 1429.80 17.57
892 107.2752 1525.09 1429.71 19.67
893 107.3898 1486.51 1429.68 17.29
894 107.5106 1441.94 1429.73 17.20
895 107.6380 1469.74 1429.87 19.01
896 107.7502 1455.81 1430.08 16.89
897 107.8759 1474.94 1430.42 17.08
898 107.9880 1478.24 1430.84 19.06
899 108.1001 1453.50 1431.34 16.86
900 108.2130 1456.14 1432.02 18.92
901 108.3130 1439.89 1432.76 18.82
902 108.4260 1443.64 1433.78 16.89
903 108.5380 1430.35 1435.01 18.74
904 108.6501 1407.65 1436.50 16.60
905 108.7760 1412.67 1438.55 16.69
906 108.8897 1428.30 1440.84 17.09
907 109.0001 1421.20 1443.55 19.20
908 109.1145 1430.02 1447.00 17.28
909 109.2249 1428.41 1451.13 19.24
910 109.3355 1457.87 1456.28 17.31
911 109.4500 1435.88 1463.11 19.30
912 109.5500 1470.59 1470.66 19.53
913 109.6645 1453.97 1481.87 17.42
914 109.7750 1450.79 1496.44 19.39
915 109.8855 1461.67 1516.58 17.35
916 110.0145 1498.10 1553.28 17.69
917 110.1317 1622.01 1624.40 18.42
918 110.2453 1788.79 1838.25 21.77
919 110.3598 2274.68 2546.22 21.95
920 110.4702 4006.08 4255.35 32.64
921 110.5806 7614.95 7133.36 40.31
922 110.6952 10889.90 10062.10 53.82
923 110.7952 10718.90 10650.60 53.37
924 110.9098 7917.17 8596.21 41.04
925 111.0202 5339.19 5654.67 37.93
926 111.1306 3503.56 3411.53 27.59
927 111.2598 2416.34 2123.27 22.84
928 111.3780 1927.65 1714.27 22.75
929 111.4993 1717.98 1580.75 19.17
930 111.6107 1617.91 1533.92 20.73
931 111.7107 1580.84 1510.29 20.49
932 111.8222 1526.74 1492.31 17.96
933 111.9357 1495.71 1479.13 19.91
934 112.0492 1530.58 1469.34 18.06
935 112.1722 1494.24 1461.35 17.78
936 112.2857 1522.99 1455.71 20.10
937 112.3992 1452.38 1451.28 17.58
938 112.5222 1491.68 1447.50 17.77
939 112.6393 1452.15 1444.66 22.72
940 112.7466 1463.51 1442.56 17.66
941 112.8681 1436.30 1440.65 17.45
942 112.9822 1476.46 1439.22 19.81
943 113.0964 1448.68 1438.08 17.57
944 113.2072 1456.36 1437.20 19.66
945 113.3180 1453.53 1436.51 17.55
946 113.4465 1386.71 1435.91 17.20
947 113.5573 1443.37 1435.54 19.60
948 113.6680 1441.95 1435.29 17.48
949 113.7965 1383.32 1435.14 17.18
950 113.8908 1374.80 1435.11 18.93
951 114.0049 1433.92 1435.15 17.32
952 114.1267 1420.13 1435.28 17.22
953 114.2407 1453.55 1435.49 19.51
954 114.3548 1428.57 1435.77 17.28
955 114.4657 1436.04 1436.11 19.37
956 114.5657 1434.55 1436.48 19.36
957 114.6767 1425.48 1436.96 17.26
958 114.7907 1398.08 1437.52 19.10
959 114.9048 1454.41 1438.19 17.45
960 115.0267 1426.54 1439.03 17.28
961 115.1462 1433.03 1440.03 17.13
962 115.2680 1419.06 1441.39 17.04
963 115.3918 1452.52 1443.31 17.15
964 115.5048 1441.39 1447.02 19.15
965 115.6048 1443.21 1456.00 19.16
966 115.7049 1497.02 1478.89 19.52
967 115.8179 1535.94 1532.24 17.72
968 115.9418 1678.11 1611.78 18.43
969 116.0679 1685.97 1650.00 18.58
970 116.1799 1627.50 1615.17 20.35
971 116.2917 1542.07 1552.38 17.67
972 116.4057 1513.90 1499.55 19.45
973 116.5057 1475.03 1472.43 19.21
974 116.6189 1474.41 1458.17 17.18
975 116.7306 1447.42 1453.14 19.02
976 116.8424 1431.36 1451.73 16.91
977 116.9557 1464.27 1451.57 19.13
978 117.0557 1457.40 1451.80 19.09
979 117.1689 1428.92 1452.25 16.92
980 117.2806 1452.71 1452.83 19.07
981 117.3924 1443.32 1453.49 16.97
982 117.5190 1438.92 1454.31 16.99
983 117.6327 1464.64 1453.35 16.99
984 117.7435 1436.34 1454.21 18.79
985 117.8577 1435.11 1455.14 16.75
986 117.9684 1470.77 1456.06 19.01
987 118.0791 1394.89 1457.00 16.61
988 118.1934 1427.21 1457.99 18.73
989 118.2934 1448.39 1458.87 18.86
990 118.4077 1441.34 1459.90 16.79
991 118.5184 1432.21 1460.91 18.77
992 118.6291 1440.61 1461.93 16.87
993 118.7578 1433.80 1463.14 16.74
994 118.8778 1483.49 1464.28 18.51
995 119.0064 1492.93 1465.52 18.42
996 119.1271 1485.56 1466.70 19.10
997 119.2417 1481.33 1467.83 20.98
998 119.3417 1456.45 1468.84 20.80
999 119.4417 1498.27 1469.86 21.12
1000 119.5563 1454.55 1471.04 18.23
1001 119.6771 1478.68 1472.30 19.14
1002 119.8063 1483.82 1473.69 18.38
1003 119.9168 1434.00 1474.90 20.62
1004 120.0270 1454.53 1476.13 18.94
1005 120.1440 1475.92 1477.48 20.78
1006 120.2589 1481.21 1478.85 19.02
1007 120.3791 1465.37 1480.36 18.13
1008 120.4939 1452.45 1481.90 20.57
1009 120.5939 1474.20 1483.33 20.77
1010 120.6939 1453.66 1484.91 20.59
1011 120.8088 1504.99 1486.98 19.21
1012 120.9290 1470.28 1489.74 18.22
1013 121.0588 1481.25 1495.23 18.98
1014 121.1690 1481.56 1508.23 20.75
1015 121.2790 1628.38 1551.70 19.12
1016 121.3978 1898.51 1625.89 21.56
1017 121.5121 2191.14 1707.04 20.58
1018 121.6334 2224.67 1728.74 20.99
1019 121.7477 1967.67 1678.55 21.95
1020 121.8477 1817.25 1620.15 21.10
1021 121.9477 1724.26 1574.16 20.58
1022 122.0621 1578.99 1542.19 17.52
1023 122.1834 1542.95 1525.81 17.49
1024 122.3121 1516.88 1519.65 17.15
1025 122.4228 1503.58 1518.68 19.19
1026 122.5333 1484.65 1519.27 17.15
1027 122.6525 1450.01 1520.51 19.23
1028 122.7672 1468.81 1522.05 17.33
1029 122.8877 1534.21 1523.87 17.67
1030 123.0024 1487.08 1525.76 19.48
1031 123.1024 1491.09 1527.52 19.51
1032 123.2024 1504.13 1529.36 19.60
1033 123.3171 1508.90 1531.59 17.58
1034 123.4377 1477.66 1534.06 17.34
1035 123.5671 1493.20 1536.86 17.48
1036 123.6775 1468.85 1539.39 19.36
1037 123.7876 1513.12 1542.04 17.55
1038 123.8955 1490.18 1544.77 19.08
1039 123.9955 1529.24 1547.44 19.33
1040 124.1088 1518.66 1550.64 17.18
1041 124.2204 1537.49 1553.99 19.38
1042 124.3321 1532.21 1557.58 17.36
1043 124.4454 1543.22 1561.48 19.42
1044 124.5454 1557.11 1565.17 19.50
1045 124.6588 1553.36 1569.70 17.37
1046 124.7704 1583.03 1574.54 19.66
1047 124.8821 1581.25 1579.85 17.63
1048 125.0088 1572.09 1586.53 17.47
1049 125.1214 1591.65 1593.17 18.34
1050 125.2321 1596.38 1600.47 20.70
1051 125.3460 1635.72 1608.96 18.96
1052 125.4570 1606.32 1618.39 20.78
1053 125.5680 1578.01 1629.23 18.15
1054 125.6820 1609.58 1642.20 20.79
1055 125.7820 1645.04 1655.49 21.02
1056 125.8960 1635.06 1673.42 18.95
1057 126.0070 1621.19 1694.58 20.84
1058 126.1180 1624.31 1720.57 18.47
1059 126.2461 1670.07 1758.85 19.18
1060 126.3642 1668.85 1805.36 18.50
1061 126.4922 1704.34 1874.05 19.17
1062 126.6122 1733.15 1965.42 18.70
1063 126.7271 1917.96 2093.74 22.36
1064 126.8271 2110.67 2269.23 23.42
1065 126.9271 2387.06 2611.28 24.91
1066 127.0421 3286.05 3745.65 26.65
1067 127.1622 7286.22 7486.19 38.70
1068 127.2921 18050.20 16608.60 63.26
1069 127.3855 26725.50 24463.60 95.78
1070 127.5022 28983.40 28161.70 72.32
1071 127.6425 21526.90 21610.70 72.14
1072 127.7545 14231.40 14549.70 52.14
1073 127.8805 9170.38 8888.39 42.40
1074 127.9924 6262.65 5814.92 38.91
1075 128.0923 4490.57 4079.83 32.90
1076 128.1924 3232.52 3019.67 27.83
1077 128.3044 2475.71 2395.03 21.58
1078 128.4305 2092.84 2087.44 19.99
1079 128.5544 1967.02 1953.39 19.15
1080 128.6674 1931.96 1883.00 21.32
1081 128.7803 1864.89 1834.59 18.85
1082 128.9198 1798.95 1792.24 21.41
1083 129.0323 1809.21 1767.36 19.15
1084 129.1572 1777.46 1746.47 19.08
1085 129.2697 1779.86 1732.13 21.29
1086 129.3697 1774.89 1722.09 21.26
1087 129.4697 1730.68 1714.08 20.99
1088 129.5823 1745.93 1707.02 18.81
1089 129.7072 1732.03 1701.15 18.85
1090 129.8323 1710.90 1696.97 18.63
1091 129.9447 1707.80 1694.42 20.86
1092 130.0571 1728.92 1692.84 18.82
1093 130.1752 1709.48 1692.11 21.98
1094 130.2753 1709.79 1692.16 21.97
1095 130.3889 1728.23 1692.90 19.92
1096 130.5002 1731.17 1694.28 22.10
1097 130.6116 1713.32 1696.31 19.53
1098 130.7252 1698.71 1699.03 21.89
1099 130.8251 1679.60 1701.97 21.77
1100 130.9389 1714.22 1705.96 19.81
1101 131.0502 1699.68 1710.56 21.90
1102 131.1616 1717.52 1715.93 19.55
1103 131.2890 1709.49 1723.10 19.79
1104 131.3961 1730.57 1730.09 20.40
1105 131.5060 1720.99 1738.29 23.09
1106 131.6183 1752.68 1747.95 20.91
1107 131.7309 1751.27 1759.14 23.30
1108 131.8435 1778.32 1772.15 20.96
1109 131.9559 1805.73 1787.35 23.67
1110 132.0558 1783.87 1803.14 23.49
1111 132.1684 1757.79 1824.10 20.92
1112 132.2809 1833.86 1849.30 23.86
1113 132.3934 1955.57 1880.05 21.96
1114 132.5184 1932.30 1922.82 21.92
1115 132.6369 1953.15 1975.05 21.91
1116 132.7619 1873.91 2047.67 21.54
1117 132.8837 1924.96 2144.35 21.72
1118 132.9977 2080.20 2270.56 25.31
1119 133.0977 2191.57 2426.33 25.98
1120 133.1978 2473.69 2657.20 27.61
1121 133.3118 2956.18 3152.83 27.06
1122 133.4337 4361.59 4683.52 32.76
1123 133.5618 10648.40 9828.42 51.69
1124 133.6728 21032.50 19350.20 81.51
1125 133.7836 30182.60 30694.00 87.46
1126 133.9100 33705.50 34482.90 102.76
1127 134.0235 28492.00 28157.50 84.17
1128 134.1465 19399.60 19287.70 69.20
1129 134.2599 13130.20 13256.00 63.57
1130 134.3600 9694.98 9699.34 54.58
1131 134.4599 7330.13 7180.12 47.43
1132 134.5733 5352.15 5121.78 36.22
1133 134.6965 3788.57 3623.62 30.27
1134 134.8233 2876.20 2755.38 26.36
1135 134.9351 2426.56 2382.24 26.96
1136 135.0464 2229.94 2197.54 23.09
1137 135.1600 2079.95 2091.98 23.68
1138 135.2599 1956.51 2029.30 23.00
1139 135.3734 1952.14 1976.65 20.30
1140 135.4848 1859.28 1937.39 22.39
1141 135.5964 1899.65 1906.78 20.44
1142 135.7099 1841.37 1882.19 22.30
1143 135.8098 1816.80 1864.67 22.10
1144 135.9234 1806.02 1848.41 19.53
1145 136.0349 1798.00 1835.39 21.96
1146 136.1463 1813.89 1824.70 19.99
1147 136.2733 1778.85 1814.77 19.39
1148 136.3905 1774.48 1807.31 19.21
1149 136.5175 1806.17 1800.73 18.96
1150 136.6376 1795.54 1795.67 19.06
1151 136.7525 1773.02 1791.71 21.08
1152 136.8524 1745.27 1788.86 20.91
1153 136.9525 1788.03 1786.47 21.17
1154 137.0674 1763.22 1784.24 18.73
1155 137.1877 1734.99 1782.40 18.72
1156 137.3174 1761.63 1780.89 18.71
1157 137.4276 1795.59 1779.96 21.23
1158 137.5376 1739.03 1779.29 18.75
1159 137.6393 1850.77 1778.89 26.61
1160 137.7393 1884.09 1778.67 27.03
1161 137.8515 1827.04 1778.60 24.50
1162 137.9642 1829.56 1778.71 26.55
1163 138.0770 1836.59 1778.98 23.06
1164 138.1891 1882.46 1779.38 27.02
1165 138.2892 1813.06 1779.83 26.49
1166 138.4015 1788.67 1780.45 24.22
1167 138.5142 1819.45 1781.17 26.48
1168 138.6270 1845.98 1781.97 23.07
1169 138.7514 1855.39 1782.96 24.84
1170 138.8582 1834.51 1783.87 23.59
1171 138.9659 1859.46 1784.85 27.57
1172 139.0789 1848.00 1785.95 24.01
1173 139.1908 1883.85 1787.08 27.79
1174 139.3027 1822.39 1788.28 24.98
1175 139.4158 1880.82 1789.54 27.73
1176 139.5159 1819.59 1790.71 27.21
1177 139.6290 1786.68 1792.09 23.53
1178 139.7408 1844.53 1793.53 27.45
1179 139.8528 1837.94 1795.06 25.07
1180 139.9790 1818.80 1782.06 23.73
1181 140.0966 1829.71 1784.56 25.08
1182 140.2168 1802.54 1787.36 20.13
1183 140.3275 1891.09 1790.45 23.23
1184 140.4274 1887.63 1794.11 23.22
1185 140.5381 1886.19 1801.22 20.89
1186 140.6525 1974.17 1817.65 23.75
1187 140.7666 2089.94 1851.73 21.68
1188 140.8882 2172.13 1906.98 22.41
1189 141.0025 2204.34 1949.32 25.08
1190 141.1167 2219.41 1950.21 22.33
1191 141.2383 2176.96 1919.46 22.45
1192 141.3681 2079.32 1883.50 23.86
1193 141.4792 1963.23 1861.32 20.66
1194 141.6071 1963.48 1844.55 20.82
1195 141.7180 1869.83 1834.58 22.63
1196 141.8293 1856.63 1827.17 20.10
1197 141.9431 1865.11 1821.50 22.61
1198 142.0432 1869.35 1817.87 22.63
1199 142.1571 1842.40 1815.23 20.17
1200 142.2681 1801.21 1814.04 22.21
1201 142.3793 1777.93 1813.84 19.64
1202 142.5070 1796.95 1814.27 19.91
1203 142.6292 1766.81 1814.95 19.48
1204 142.7570 1773.75 1815.76 19.66
1205 142.8791 1773.73 1816.57 19.47
1206 142.9930 1775.05 1817.31 21.88
1207 143.0930 1766.80 1817.96 21.83
1208 143.1929 1735.26 1818.59 21.64
1209 143.3069 1784.25 1819.29 19.70
1210 143.4290 1757.77 1820.01 19.37
1211 143.5569 1792.14 1820.71 19.75
1212 143.6680 1766.59 1821.29 21.81
1213 143.7789 1762.78 1821.83 19.39
1214 143.8968 1731.46 1822.35 20.99
1215 143.9967 1719.04 1822.77 20.92
1216 144.1114 1733.56 1823.20 18.80
1217 144.2216 1722.17 1823.57 20.97
1218 144.3320 1726.81 1823.90 18.76
1219 144.4467 1769.09 1824.20 21.22
1220 144.5466 1742.58 1824.42 21.06
1221 144.6613 1737.95 1824.63 18.80
1222 144.7717 1741.64 1824.78 21.07
1223 144.8820 1764.22 1824.89 18.97
1224 145.0114 1746.29 1824.95 18.86
1225 145.1277 1742.41 1824.95 21.39
1226 145.2467 1764.13 1824.91 19.60
1227 145.3589 1760.60 1824.81 21.76
1228 145.4588 1771.47 1824.68 21.84
1229 145.5710 1753.88 1824.49 19.33
1230 145.6837 1817.39 1824.25 22.12
1231 145.7966 1779.57 1823.96 19.69
1232 145.9211 1800.57 1823.58 19.59
1233 146.0338 1838.93 1823.19 22.26
1234 146.1465 1817.23 1822.75 19.90
1235 146.2711 1750.80 1822.20 19.30
1236 146.3817 1805.65 1821.67 22.09
1237 146.4949 1773.17 1821.08 19.68
1238 146.6185 1788.62 1820.38 19.56
1239 146.7316 1797.69 1819.69 22.04
1240 146.8448 1766.75 1818.95 19.65
1241 146.9566 1837.28 1818.18 22.29
1242 147.0567 1762.17 1817.46 21.83
1243 147.1685 1763.97 1816.61 19.42
1244 147.2816 1770.30 1815.72 21.87
1245 147.3949 1788.70 1814.79 19.76
1246 147.5186 1791.23 1813.73 19.57
1247 147.6375 1759.28 1812.68 19.22
1248 147.7610 1755.84 1811.56 18.99
1249 147.8837 1797.83 1810.36 19.21
1250 147.9973 1751.43 1809.31 21.21
1251 148.0974 1775.72 1808.39 21.37
1252 148.1974 1792.97 1807.48 21.46
1253 148.3111 1776.18 1806.49 19.10
1254 148.4337 1777.20 1805.51 19.11
1255 148.5611 1809.10 1804.66 19.26
1256 148.6725 1830.11 1804.25 21.68
1257 148.7836 1800.46 1804.60 19.24
1258 148.8972 1853.81 1806.85 22.44
1259 148.9973 1884.95 1812.13 22.64
1260 149.1109 1850.99 1824.59 20.13
1261 149.2222 1925.65 1845.53 22.82
1262 149.3336 1928.44 1873.80 20.36
1263 149.4473 1931.64 1902.10 22.89
1264 149.5471 1946.88 1915.85 22.93
1265 149.6609 1913.77 1912.77 20.45
1266 149.7722 1913.05 1895.66 22.79
1267 149.8835 1941.24 1873.32 20.43
1268 150.0110 1939.43 1849.25 20.62
1269 150.1228 1896.99 1832.15 19.82
1270 150.2337 1877.36 1818.79 22.06
1271 150.3474 1862.60 1807.86 19.43
1272 150.4586 1823.92 1798.98 21.72
1273 150.5701 1792.96 1791.34 19.44
1274 150.6837 1836.72 1784.51 21.77
1275 150.7836 1820.69 1779.14 21.69
1276 150.8974 1842.43 1773.69 19.33
1277 151.0087 1787.47 1769.02 21.49
1278 151.1201 1783.73 1764.99 19.41
1279 151.2473 1798.07 1761.12 19.09
1280 151.3600 1788.72 1758.22 21.37
1281 151.4734 1755.16 1755.65 18.91
1282 151.5865 1756.74 1753.31 21.01
1283 151.6864 1724.82 1751.34 20.81
1284 151.7995 1743.61 1749.19 18.57
1285 151.9115 1705.08 1747.11 20.71
1286 152.0235 1709.45 1745.08 18.69
1287 152.1496 1751.54 1742.83 18.64
1288 152.2615 1722.09 1740.88 20.83
1289 152.3734 1740.58 1738.96 18.85
1290 152.4996 1729.74 1736.84 18.52
1291 152.6156 1745.34 1734.93 21.50
1292 152.7267 1718.81 1733.14 19.11
1293 152.8546 1736.68 1731.12 19.12
1294 152.9655 1749.79 1729.41 21.50
1295 153.0768 1719.60 1727.74 19.11
1296 153.1906 1719.41 1726.07 21.33
1297 153.2906 1746.09 1724.65 21.49
1298 153.4046 1731.07 1723.07 19.09
1299 153.5155 1733.14 1721.58 21.40
1300 153.6268 1741.54 1720.14 19.23
1301 153.7545 1709.50 1718.54 18.97
1302 153.8744 1749.63 1717.11 19.18
1303 154.0022 1718.35 1715.66 18.91
1304 154.1232 1702.63 1714.35 18.87
1305 154.2377 1735.25 1713.18 21.25
1306 154.3376 1709.81 1712.21 21.13
1307 154.4377 1717.69 1711.30 21.14
1308 154.5522 1699.81 1710.31 18.81
1309 154.6732 1720.54 1709.35 18.96
1310 154.8022 1708.80 1708.41 18.86
1311 154.9128 1700.34 1707.67 21.06
1312 155.0231 1722.50 1707.01 18.97
1313 155.1430 1747.64 1706.38 21.31
1314 155.2574 1727.20 1705.85 18.97
1315 155.3784 1721.84 1705.37 18.91
1316 155.4929 1714.74 1705.00 21.12
1317 155.5928 1742.78 1704.75 21.29
1318 155.6929 1729.16 1704.55 21.18
1319 155.8074 1730.95 1704.40 19.00
1320 155.9285 1680.38 1704.33 18.66
1321 156.0574 1693.88 1704.35 18.79
1322 156.1680 1663.47 1704.45 20.79
1323 156.2784 1753.51 1704.62 19.07
1324 156.3948 1708.19 1704.89 20.89
1325 156.4948 1715.16 1705.17 20.95
1326 156.6095 1746.92 1705.57 18.90
1327 156.7197 1703.75 1706.03 20.87
1328 156.8298 1716.15 1706.55 18.74
1329 156.9447 1731.48 1707.15 21.03
1330 157.0446 1754.24 1707.74 21.19
1331 157.1595 1731.31 1708.47 18.83
1332 157.2697 1761.12 1709.23 21.21
1333 157.3799 1700.10 1710.04 18.64
1334 157.5094 1707.66 1711.06 18.69
1335 157.6227 1716.15 1712.00 19.39
1336 157.7357 1714.57 1712.97 21.85
1337 157.8491 1721.54 1713.99 19.76
1338 157.9606 1646.59 1715.02 21.42
1339 158.0723 1677.50 1716.07 19.18
1340 158.1857 1653.73 1717.15 21.44
1341 158.2857 1714.66 1718.11 21.86
1342 158.3990 1691.53 1719.21 19.56
1343 158.5107 1726.92 1720.28 21.95
1344 158.6223 1727.61 1721.33 19.48
1345 158.7491 1706.52 1722.43 19.67
1346 158.8607 1678.45 1723.42 21.83
1347 158.9725 1715.87 1724.36 19.80
1348 159.0858 1715.02 1725.26 22.26
1349 159.1857 1695.25 1725.99 22.10
1350 159.2991 1666.20 1726.74 19.69
1351 159.4108 1741.46 1727.38 22.40
1352 159.5224 1690.04 1727.91 19.65
1353 159.6492 1709.26 1728.36 19.93
1354 159.7608 1686.31 1728.60 22.06
1355 159.8725 1674.42 1728.68 19.55
1356 159.9991 1729.70 1728.55 20.10
1357 160.1116 1746.04 1728.23 25.23
1358 160.2202 1690.15 1727.70 19.19
1359 160.3457 1721.63 1726.81 19.32
1360 160.4579 1683.86 1725.73 21.39
1361 160.5701 1700.39 1724.36 19.26
1362 160.6828 1733.84 1722.66 21.71
1363 160.7957 1743.26 1720.62 19.44
1364 160.9202 1666.82 1717.94 19.07
1365 161.0329 1720.96 1715.09 21.61
1366 161.1456 1722.34 1711.80 19.32
1367 161.2702 1735.61 1707.63 19.44
1368 161.3914 1742.67 1702.99 21.85
1369 161.5025 1730.95 1698.19 19.46
1370 161.6304 1706.28 1691.98 19.39
1371 161.7413 1752.35 1685.94 21.92
1372 161.8524 1717.78 1679.27 19.38
loop_
_pd_proc_info_excluded_regions
'from 2.773 to 6.157'
'from 162.073 to 164.089'
loop_
_refln_index_h
_refln_index_k
_refln_index_l
_refln_F_squared_calc
_refln_F_squared_meas
_refln_F_squared_sigma
_refln_observed_status
_refln_d_spacing
0 0 1 2.40 3.08 0.13 o 3.942995
1 0 1 1.50 0.91 0.07 o 2.788119
1 1 1 435.83 448.92 9.01 o 2.276489
0 0 2 543.73 543.48 10.92 o 1.971498
1 0 2 2.01 1.20 0.08 o 1.763361
1 1 2 1.57 1.77 0.12 o 1.609721
2 0 2 495.84 478.54 9.61 o 1.394059
0 0 3 1.68 2.12 0.12 o 1.314332
2 1 2 1.68 2.12 0.12 o 1.314332
1 0 3 1.62 0.00 0.00 < 1.246885
1 1 3 360.79 349.74 7.02 o 1.188858
2 2 2 452.19 439.78 8.88 o 1.138245
2 0 3 1.39 0.56 0.13 o 1.093590
2 1 3 1.67 1.65 0.09 o 1.053810
0 0 4 412.42 409.09 8.33 o 0.985749
2 2 3 1.15 1.32 0.10 o 0.956317
1 0 4 1.15 1.32 0.10 o 0.956317
1 1 4 1.71 4.91 0.29 o 0.929373
3 0 3 1.71 4.91 0.29 o 0.929373
3 1 3 298.74 308.75 6.21 o 0.904585
2 0 4 376.17 379.36 7.62 o 0.881681
2 1 4 0.95 2.75 0.25 o 0.860432
3 2 3 1.75 2.26 0.22 o 0.840649
