#------------------------------------------------------------------------------
#$Date: 2019-11-17 13:00:54 +0200 (Sun, 17 Nov 2019) $
#$Revision: 230017 $
#$URL: file:///home/coder/svn-repositories/cod/cif/7/04/73/7047315.cif $
#------------------------------------------------------------------------------
#
# This file is available in the Crystallography Open Database (COD),
# http://www.crystallography.net/
#
# All data on this site have been placed in the public domain by the
# contributors.
#
data_7047315
loop_
_publ_author_name
'Chi, Yang'
'Xue, Huai-Guo'
'Guo, Sheng-Ping'
_publ_section_title
;
 The first investigation of europium silicate melilite for second-order
 nonlinear optical application: experimental and theoretical studies.
;
_journal_issue                   38
_journal_name_full
'Dalton transactions (Cambridge, England : 2003)'
_journal_page_first              13434
_journal_page_last               13441
_journal_paper_doi               10.1039/c8dt02701c
_journal_volume                  47
_journal_year                    2018
_chemical_formula_moiety         '0.5(Eu4 Mg2 O14 Si4)'
_chemical_formula_sum            'Eu2 Mg O7 Si2'
_chemical_formula_weight         496.41
_space_group_crystal_system      tetragonal
_space_group_IT_number           113
_space_group_name_Hall           'P -4 2ab'
_space_group_name_H-M_alt        'P -4 21 m'
_symmetry_space_group_name_Hall  'P -4 2ab'
_symmetry_space_group_name_H-M   'P -4 21 m'
_atom_sites_solution_primary     direct
_audit_creation_date             2018-06-09
_audit_creation_method
;
Olex2 1.2-alpha
(compiled 2018.03.09 svn.r3491 for OlexSys, GUI svn.r5480)
;
_cell_angle_alpha                90
_cell_angle_beta                 90
_cell_angle_gamma                90
_cell_formula_units_Z            2
_cell_length_a                   8.0305(4)
_cell_length_b                   8.0305(4)
_cell_length_c                   5.1718(5)
_cell_measurement_reflns_used    2521
_cell_measurement_temperature    293(2)
_cell_measurement_theta_max      31.0684
_cell_measurement_theta_min      2.5363
_cell_volume                     333.52(4)
_computing_molecular_graphics    'Olex2 (Dolomanov et al., 2009)'
_computing_publication_material  'Olex2 (Dolomanov et al., 2009)'
_computing_structure_refinement  'ShelXL (Sheldrick, 2015)'
_computing_structure_solution    'ShelXS (Sheldrick, 2008)'
_diffrn_ambient_temperature      293(2)
_diffrn_measured_fraction_theta_full 1.000
_diffrn_measured_fraction_theta_max 0.949
_diffrn_measurement_device_type  'CCD area detector'
_diffrn_measurement_method       'phi and omega scans'
_diffrn_radiation_monochromator  graphite
_diffrn_radiation_type           MoK\a
_diffrn_radiation_wavelength     0.71073
_diffrn_reflns_av_R_equivalents  0.0398
_diffrn_reflns_av_unetI/netI     0.0304
_diffrn_reflns_Laue_measured_fraction_full 1.000
_diffrn_reflns_Laue_measured_fraction_max 0.949
_diffrn_reflns_limit_h_max       10
_diffrn_reflns_limit_h_min       -9
_diffrn_reflns_limit_k_max       11
_diffrn_reflns_limit_k_min       -8
_diffrn_reflns_limit_l_max       7
_diffrn_reflns_limit_l_min       -7
_diffrn_reflns_number            2741
_diffrn_reflns_point_group_measured_fraction_full 0.997
_diffrn_reflns_point_group_measured_fraction_max 0.902
_diffrn_reflns_theta_full        25.242
_diffrn_reflns_theta_max         31.068
_diffrn_reflns_theta_min         3.588
_exptl_absorpt_coefficient_mu    19.077
_exptl_absorpt_correction_type   none
_exptl_crystal_colour            yellow
_exptl_crystal_colour_primary    yellow
_exptl_crystal_density_diffrn    4.943
_exptl_crystal_description       sheet
_exptl_crystal_F_000             444
_exptl_crystal_size_max          0.04
_exptl_crystal_size_mid          0.04
_exptl_crystal_size_min          0.03
_refine_diff_density_max         2.028
_refine_diff_density_min         -1.817
_refine_diff_density_rms         0.480
_refine_ls_abs_structure_details
;
 Flack x determined using 182 quotients [(I+)-(I-)]/[(I+)+(I-)]
 (Parsons, Flack and Wagner, Acta Cryst. B69 (2013) 249-259).
;
_refine_ls_abs_structure_Flack   -0.02(3)
_refine_ls_extinction_coef       0.017(3)
_refine_ls_extinction_expression Fc^*^=kFc[1+0.001xFc^2^\l^3^/sin(2\q)]^-1/4^
_refine_ls_extinction_method     'SHELXL-2014/7 (Sheldrick 2014'
_refine_ls_goodness_of_fit_ref   1.048
_refine_ls_hydrogen_treatment    undef
_refine_ls_matrix_type           full
_refine_ls_number_parameters     35
_refine_ls_number_reflns         527
_refine_ls_number_restraints     0
_refine_ls_restrained_S_all      1.048
_refine_ls_R_factor_all          0.0295
_refine_ls_R_factor_gt           0.0290
_refine_ls_shift/su_max          0.001
_refine_ls_shift/su_mean         0.000
_refine_ls_structure_factor_coef Fsqd
_refine_ls_weighting_details
'w=1/[\s^2^(Fo^2^)+(0.0824P)^2^+0.8431P] where P=(Fo^2^+2Fc^2^)/3'
_refine_ls_weighting_scheme      calc
_refine_ls_wR_factor_gt          0.1014
_refine_ls_wR_factor_ref         0.1018
_reflns_Friedel_coverage         0.568
_reflns_Friedel_fraction_full    0.992
_reflns_Friedel_fraction_max     0.830
_reflns_number_gt                515
_reflns_number_total             527
_reflns_threshold_expression     'I > 2\s(I)'
_cod_data_source_file            c8dt02701c2.cif
_cod_data_source_block           a
_cod_depositor_comments          'Adding full bibliography for 7047315.cif.'
_cod_original_cell_volume        333.52(5)
_cod_database_code               7047315
_shelx_shelxl_version_number     2014/7
_shelx_space_group_comment
;
The symmetry employed for this shelxl refinement is uniquely defined
by the following loop, which should always be used as a source of
symmetry information in preference to the above space-group names.
They are only intended as comments.
;
_shelx_estimated_absorpt_t_max   0.598
_shelx_estimated_absorpt_t_min   0.516
_olex2_refinement_description
;
;
_shelx_res_file
;
    a.res created by SHELXL-2014/7

TITL a in P-421m #113
REM reset to P-421m #113
CELL 0.71073 8.0305 8.0305 5.1718 90 90 90
ZERR 2 0.0004 0.0004 0.0005 0 0 0
LATT -1
SYMM +Y,-X,-Z
SYMM -X,-Y,+Z
SYMM -Y,+X,-Z
SYMM 0.5+X,0.5-Y,-Z
SYMM 0.5-X,0.5+Y,-Z
SYMM 0.5-Y,0.5-X,+Z
SYMM 0.5+Y,0.5+X,+Z
SFAC Eu Mg O Si
UNIT 4 2 14 4

L.S. 10 0 0
PLAN  5
SIZE 0.04 0.04 0.03
fmap 2 53
acta
REM <olex2.extras>
REM <HklSrc "%.\\a.hkl">
REM </olex2.extras>

WGHT    0.082400    0.843100
EXTI    0.016887
FVAR       0.51465
EU1   1    0.664951    0.164951    0.508420    10.50000    0.01023    0.01023 =
         0.00929   -0.00110   -0.00110   -0.00167
MG1   2    1.000000    0.000000    0.000000    10.25000    0.00967    0.00967 =
         0.00800    0.00000    0.00000    0.00000
SI1   4    0.861831    0.361831   -0.053990    10.50000    0.00759    0.00759 =
         0.00806    0.00051    0.00051   -0.00132
O1    3    0.500000    0.000000    0.157026    10.25000    0.00892    0.00892 =
         0.01194    0.00000    0.00000    0.00044
O2    3    0.860832    0.360832    0.254671    10.50000    0.01340    0.01340 =
         0.00984    0.00099    0.00099   -0.00629
O3    3    0.920868    0.190173   -0.195104    11.00000    0.01089    0.00824 =
         0.01697    0.00016   -0.00007   -0.00071
HKLF 4

REM  a in P-421m #113
REM R1 =  0.0290 for     515 Fo > 4sig(Fo)  and  0.0295 for all     527 data
REM     35 parameters refined using      0 restraints

END

WGHT      0.0535      0.8463

REM Highest difference peak  2.028,  deepest hole -1.817,  1-sigma level  0.480
Q1    1   0.7168  0.1453  0.0063  11.00000  0.05    2.03
Q2    1   0.3805 -0.1514  0.0133  11.00000  0.05    1.68
Q3    1   0.8807  0.2186 -0.4936  11.00000  0.05    1.63
Q4    1   1.0000  0.5000  0.4166  10.25000  0.05    1.55
Q5    1   0.8747  0.3747  0.4374  10.50000  0.05    1.53
;
_shelx_res_checksum              27109
_shelx_hkl_file
;
   1   0   0    5.20    0.60
  -1   0   0    3.80    0.60
   0   1   0    5.90    1.10
   1   1   0 1073.59   59.49
   1   1   0 1008.80   59.29
   1  -1   0 1121.59   59.09
   1  -1   0 1150.28   59.49
  -1   1   0 1029.80   59.09
  -1   1   0 1087.89   59.39
  -1  -1   0 1118.89   59.49
   2   0   0 1946.21  107.69
   2   0   0 1945.41  107.79
   0   2   0 2020.70  108.29
   2  -1   0 2311.07  128.79
   2  -1   0 2447.06  129.19
   1   2   0 2407.56  129.19
   1   2   0 2179.18  128.89
  -1   2   0 2475.95  129.19
   1  -2   0 2388.26  129.59
   2   1   0 2301.97  129.19
   2   1   0 2240.08  128.99
  -2   1   0 2398.76  129.09
  -2  -1   0 2318.97  129.19
  -1  -2   0 2500.55  129.39
   2  -2   0  917.81   49.90
  -2   2   0  939.91   49.70
   2   2   0  838.22   49.60
   2   2   0  877.01   49.80
  -2  -2   0  917.01   49.99
   3   0   0    1.20    0.80
   3   0   0    3.30    1.10
   0   3   0    1.10    0.50
  -3   0   0    0.90    0.80
   0  -3   0   -1.80    2.60
  -3   1   0 3403.56  191.98
   1   3   0 3332.37  191.68
   3  -1   0 3446.76  191.78
   3  -1   0 3360.96  192.08
  -1   3   0 3818.92  192.58
   3   1   0 3537.15  192.18
   3   1   0 3455.75  192.08
   1   3   0 3811.52  192.48
  -3  -1   0 3462.15  192.18
  -2   3   0   12.80    2.10
   3   2   0   18.70    2.30
   3  -2   0   13.90    2.20
   2  -3   0   15.60    2.80
  -2  -3   0   11.30    2.30
   2   3   0   16.30    2.20
   3  -3   0 9732.53  530.95
   3   3   0 9463.35  530.45
  -3  -3   0 9999.00  531.05
  -4   0   0 3771.52  208.98
   4   0   0 3810.92  208.98
   0   4   0 4020.60  209.78
   4   0   0 4053.79  208.88
   0   4   0 3441.66  208.28
  -1   4   0 4955.70  253.47
   4  -1   0 4651.53  252.87
  -1  -4   0 4452.25  254.07
  -4  -1   0 4424.66  252.87
   1   4   0 4472.75  252.27
   1   4   0 4671.33  253.07
   4  -1   0 4742.13  252.57
   4   1   0 4543.45  252.87
  -4   1   0 4708.23  252.87
  -4   2   0 1812.32   95.89
  -2   4   0 1878.61   95.99
   4  -2   0 1761.82   95.29
   4  -2   0 1690.23   95.79
   4   2   0 1740.53   95.79
   2   4   0 1671.43   95.39
  -4  -2   0 1738.63   96.09
   2   4   0 1734.93   95.99
   2  -4   0 1526.85   97.49
   4   2   0 1727.13   95.89
  -2  -4   0 1798.22   96.59
   4  -3   0   14.20    2.00
   3   4   0   11.40    2.40
   3   4   0   13.10    2.50
   4   3   0   13.10    2.60
  -3   4   0   14.50    2.50
  -4   3   0   14.00    2.60
   3  -4   0   16.50    3.60
  -4  -4   0 2353.16  127.39
  -4   4   0 2246.38  126.39
   4   4   0 2204.88  126.69
   4  -4   0 2417.26  127.49
   4   4   0 2254.97  126.49
   0   5   0    3.50    2.20
   0   5   0    3.30    4.00
   0   5   0    2.80    1.10
  -5   0   0    1.50    1.80
   5   0   0    2.00    1.50
   5   0   0    1.40    1.90
   1   5   0   56.59    5.10
  -5  -1   0   52.89    5.00
   5  -1   0   50.89    4.70
   5   1   0   52.09    4.90
  -1   5   0   50.39    7.20
  -5   1   0   52.99    5.10
  -1  -5   0   50.39    8.30
   5  -1   0   49.50    4.60
  -1   5   0   56.89    5.80
   1   5   0   52.69    4.00
   5   1   0   54.89    4.80
  -2  -5   0 1407.56   78.49
   5  -2   0 1406.66   77.09
   5   2   0 1390.46   76.99
  -2   5   0 1370.76   76.99
   2   5   0 1387.96   77.19
   2   5   0 1329.47   76.39
  -5   2   0 1369.66   76.99
   5  -2   0 1383.26   76.39
   5   2   0 1406.06   77.19
   5   3   0 1222.08   70.29
   5  -3   0 1322.67   70.59
  -5  -3   0 1280.97   70.79
  -5   3   0 1300.47   70.19
   3  -5   0 1128.29   72.39
   5  -3   0 1257.17   69.29
   3   5   0 1250.17   69.79
  -3  -5   0 1288.07   71.29
   3   5   0 1236.58   70.29
  -3   5   0 1258.27   69.99
   4   5   0 2072.89  112.69
   5   4   0 1997.30  112.59
  -4  -5   0 2020.50  113.49
  -4   5   0 2043.20  112.29
   4   5   0 2002.30  112.19
   5  -4   0 2132.19  113.09
   4  -5   0 2068.09  114.09
   5  -4   0 1958.90  110.99
  -5   4   0 1966.00  112.29
   5   5   0  299.17   19.40
   5  -5   0  316.37   20.60
   5   5   0  311.47   19.30
   0   6   0 7729.33  407.36
   6   0   0 7979.30  408.66
  -6   0   0 7279.57  408.86
   0   6   0 7765.12  409.46
   0   6   0 6513.45  410.56
   6   0   0 7586.04  408.76
   6   1   0  102.29    7.80
   6  -1   0  100.89    7.70
  -1  -6   0   80.89   13.10
   1   6   0  110.09    8.50
   1   6   0   99.69    6.80
  -6   1   0   91.09    8.00
   6   1   0  100.79    8.00
  -1   6   0  108.49    9.60
  -1   6   0  110.99    9.20
   6  -1   0  103.19    7.70
  -2  -6   0  427.56   30.10
   2   6   0  476.35   27.50
   6  -2   0  468.95   27.40
  -2   6   0  472.35   27.40
   6   2   0  440.06   27.20
   2   6   0  450.35   26.50
   6  -2   0  490.65   27.60
   3   6   0  154.68   11.50
   6   3   0  167.68   11.90
   3   6   0  165.98   11.00
   6  -3   0  177.48   12.00
   6   3   0  170.08   11.80
  -3   6   0  166.08   11.60
  -3  -6   0  177.78   14.50
   6   4   0 1246.88   71.09
   4  -6   0 1088.39   74.09
   4   6   0 1290.87   71.09
   6  -4   0 1283.67   71.29
   4   6   0 1303.87   70.69
   6   4   0 1331.87   71.19
   5   6   0   64.49    7.10
   5   6   0   52.49    6.50
   5  -6   0   59.29   10.10
   6   5   0   48.80    7.30
   6  -5   0   65.59    8.40
   6   6   0 3398.26  187.78
   0   7   0   -2.90    5.30
   0   7   0    3.80    3.30
   7   0   0    1.50    2.40
   1   7   0  951.20   52.99
  -1   7   0  889.41   53.19
   7  -1   0  902.51   52.49
   7   1   0  911.91   52.59
  -1   7   0  957.10   53.99
   1   7   0  905.41   51.19
   2   7   0 2024.90  109.99
   2   7   0 1972.40  111.09
  -2   7   0 1834.12  113.19
   7   2   0 1973.70  111.09
   7   2   0 1937.31  110.89
   7  -2   0 1935.81  110.99
  -2   7   0 2287.67  114.79
   7  -3   0 2977.50  157.58
   3   7   0 2746.63  157.08
   3   7   0 2847.02  156.38
   7   3   0 2905.61  157.38
   7   3   0 2730.63  157.38
   7   4   0 1862.21   99.99
   7   4   0 1786.02   99.79
   4   7   0 1798.42   99.09
   4   7   0 1674.13   99.69
   7  -5   0  122.99   11.50
   5  -7   0   67.99   15.60
   5   7   0  104.99    9.40
   7   5   0  107.19    9.70
   7   6   0   43.80    7.50
   6  -7   0   25.20   10.00
   6   7   0   45.10    7.10
   7  -6   0   62.39   10.40
   7  -7   0  285.87   26.10
   7   7   0  356.26   22.30
   0   8   0  198.28   14.80
   1   8   0 1758.02   92.99
   8  -1   0 1500.75   96.49
   1   8   0 1758.52   94.99
  -1   8   0 1710.93   95.59
  -2   8   0  213.38   17.50
   2   8   0  217.48   13.70
   2   8   0  221.68   15.10
   8  -2   0  211.98   15.20
   8   3   0   32.00    5.70
   3   8   0   33.80    5.20
   8   3   0   23.10    7.80
   8  -3   0   27.80    5.70
   3   8   0   27.00    5.30
  -3   8   0   24.60    8.80
   4   8   0  103.49   10.10
   8   4   0  118.29   10.50
   8  -4   0  135.29   11.60
   8   5   0 1065.39   61.49
   5   8   0 1039.50   61.09
   8  -5   0 1081.49   62.49
   8  -6   0   79.59   13.70
   8   6   0   70.59   10.00
   6   8   0   70.99    9.70
   7   8   0 1183.08   67.49
   8  -7   0 1137.59   71.79
   8   7   0 1168.08   67.69
   8  -8   0  223.28   30.10
   0   9   0    3.20    4.50
   9   0   0    2.50    4.10
   9   1   0  744.13   46.90
   1   9   0  789.02   44.90
   9  -1   0  791.22   47.30
  -1   9   0  868.11   48.40
   1   9   0  813.82   47.30
   9   2   0   48.90    8.20
   9  -2   0   47.10    7.90
   2   9   0   61.39    8.10
  -2   9   0   62.99   10.90
   2   9   0   61.89    6.20
   3   9   0 2121.99  119.99
   9  -3   0 2230.58  120.79
   9   3   0 2084.79  120.19
  -3   9   0 2126.79  122.49
   9   4   0   21.60    5.80
   9  -4   0   22.10    7.40
  -4   9   0   37.90   11.80
   4   9   0   23.70    6.00
   5   9   0  406.86   26.60
   9   5   0  411.76   26.90
   9  -5   0  414.06   28.40
   6   9   0   84.59   11.40
   9  -6   0   80.89   14.00
  -7   9   0   68.39   26.60
   0  10   0  870.71   49.70
  10   0   0  775.62   48.80
   1  10   0 1341.77   76.89
  10  -1   0 1295.37   76.99
  10   1   0 1315.27   77.09
  -1  10   0 1392.66   77.69
  10  -2   0  393.76   27.30
  10   2   0  384.56   27.20
   2  10   0  421.96   27.30
  -2  10   0  468.25   29.30
  10   3   0   66.29   10.40
   3  10   0   67.49    9.90
  -3  10   0   70.59   12.30
  10  -3   0   44.50    8.90
  -4  10   0  480.05   35.30
   4  10   0  480.85   30.90
  10  -4   0  480.55   32.10
   5  10   0 1050.09   59.99
  -5  10   0  978.00   65.19
  -6  10   0  410.96   43.30
   0  11   0    7.30    7.40
   1  11   0    5.70    6.90
  -1  11   0   -1.00    9.20
   2  11   0 1061.09   60.69
  -2  11   0  988.80   67.09
   3  11   0   52.79    9.50
   0   0  -1 4250.67  220.28
   0   0   1 3809.72  219.88
   0   0   1 4108.89  220.08
   0   0   1 3947.41  220.18
  -1   0   1   34.80    2.40
   1   0   1   34.20    2.40
  -1   0  -1   32.30    2.40
   0  -1  -1   32.00    2.50
   0   1   1   32.40    2.50
   0   1   1   26.00    3.40
   0  -1  -1   35.50    4.20
   0   1  -1   33.00    2.50
   0  -1   1   36.30    2.60
   1   0  -1   35.30    2.40
   1   0   1   32.30    2.40
  -1   0  -1   34.60    2.40
  -1  -1  -1 1010.60   55.89
   1  -1  -1 1006.90   54.49
  -1   1  -1 1044.70   54.19
  -1   1   1 1115.89   55.69
  -1  -1  -1  935.31   55.49
   1   1   1  937.01   53.99
  -1   1  -1  941.71   53.69
   1  -1   1  952.80   55.19
  -1  -1   1  941.21   53.79
   1  -1   1 1025.40   55.69
   1   1  -1  995.00   55.39
   1   1   1 1026.80   54.59
  -1   1   1 1044.40   56.09
   0  -2   1 3684.63  187.98
  -2   0  -1 3402.36  187.88
  -2   0  -1 3471.45  187.98
   2   0   1 3511.95  187.98
   0   2  -1 3367.26  187.68
   0  -2  -1 3289.37  187.68
   0  -2  -1 3393.76  190.08
   0   2   1 3364.96  187.68
  -2   0   1 3546.95  187.98
   2   0  -1 3382.76  187.98
   2   0   1 3444.96  187.88
  -1   2   1 5567.54  303.67
  -1   2  -1 5002.20  272.87
   2  -2  -1  447.46   24.00
   2  -2  -1  427.86   24.70
  -2  -2  -1  317.77   18.70
  -2   2  -1  420.06   23.80
   2   2   1  409.76   24.10
   2   2   1  442.56   24.80
   2   2  -1  285.27   18.70
  -2   2  -1  414.96   23.80
   2  -2   1  344.37   18.40
  -2   2   1  347.27   19.20
  -2  -2   1  430.86   24.20
  -2  -2  -1  328.87   19.10
   2  -2   1  328.27   18.40
   0   3  -1  574.74   32.60
   3   0   1  583.94   33.10
  -3   0  -1  574.84   33.00
  -3   0   1  585.94   33.10
   3   0   1  611.74   33.00
   0  -3   1  654.33   33.60
  -3   0  -1  586.14   33.10
   0  -3  -1  580.04   32.50
   0   3  -1  573.44   32.50
   3   0  -1  577.34   33.00
   0   3   1  571.14   32.50
  -3  -1   1 1462.55   78.89
  -1   3   1 1268.27   76.99
  -1   3   1 1169.18   75.49
  -1  -3  -1 1458.35   75.79
   3  -1  -1 1414.66   78.89
  -3   1  -1 1439.36   78.69
   1   3  -1 1334.77   73.99
   3   1   1 1460.35   79.09
  -3   1  -1 1408.86   78.69
  -1   3   1 1204.58   74.59
   3   1   1 1470.55   78.89
  -1  -3  -1 1392.16   74.19
  -3   1   1 1471.35   74.69
  -1   3  -1 1302.97   79.09
   3  -1   1 1400.36   74.19
  -1  -3   1 1455.85   78.99
  -1   3  -1 1425.46   78.29
   1  -3  -1 1427.16   78.19
  -3  -1  -1 1423.96   74.79
  -1   3  -1 1355.56   79.59
   1   3   1 1524.65   78.59
   1   3   1 1439.56   79.79
   3  -1   1 1351.96   74.29
   3   1  -1 1350.66   74.39
   2  -3   1   66.79    5.40
   3  -2  -1   79.19    5.30
  -3   2  -1   94.39    5.50
  -3   2  -1   82.69    5.60
   2  -3   1   71.39    4.80
  -3  -2   1   77.69    5.80
  -2  -3  -1   72.09    5.90
   3   2   1   81.09    6.10
  -2  -3  -1   60.39    5.00
   3  -2  -1   90.49    6.10
  -2   3   1   77.69    6.00
   2   3  -1   72.69    5.00
   3   2   1   85.29    5.90
   2  -3  -1   85.59    7.10
   3   2  -1   71.79    5.10
  -3  -2  -1   74.19    5.40
   2   3   1   80.89    5.60
   2  -3  -1   70.39    5.30
  -3   2   1   80.19    5.70
  -2   3  -1   93.69    5.40
  -2   3  -1   84.49    5.20
   3  -2   1   80.89    4.80
   3  -2   1   77.39    5.20
  -3  -2  -1   70.19    5.60
   3  -3   1 6050.90  330.77
   3  -3  -1 6425.06  340.47
   3   3   1 6284.17  341.67
  -3   3  -1 6170.78  340.67
   3  -3  -1 6194.38  341.77
  -3  -3  -1 6038.30  330.77
  -3   3  -1 6112.69  340.47
  -3  -3   1 6464.45  341.37
   3   3  -1 5719.83  330.47
   3  -3   1 6277.97  330.17
   3   3   1 6071.89  340.97
  -3   3   1 6292.17  331.17
  -3  -3  -1 5951.70  331.27
   0  -4  -1 1780.22   99.19
   0  -4  -1 1779.22   95.19
  -4   0   1 1782.22   96.09
   4   0   1 1739.83   95.99
   0   4  -1 1734.83   96.39
   4   0   1 1786.62   95.79
  -4   0  -1 1823.72   96.09
   0   4   1 1665.53   95.09
   4   0  -1 1661.93   95.79
   0   4  -1 1635.54   95.59
   1   4  -1 3834.42  218.68
  -1  -4  -1 4270.57  221.48
  -1   4   1 3951.30  218.68
   4   1   1 4026.30  216.48
  -1   4   1 3377.46  221.58
  -1  -4  -1 4059.09  218.58
  -4  -1   1 3866.11  216.58
  -4   1  -1 3924.81  216.38
   4   1   1 3938.61  216.68
  -4   1  -1 4060.19  216.48
  -4   1   1 4181.38  219.38
  -1   4  -1 4107.29  215.98
   1   4   1 3906.01  217.58
   1   4   1 4032.20  215.98
   4   1  -1 3945.71  219.08
  -1   4  -1 3736.13  215.88
   4  -1   1 4203.08  218.88
   4  -1   1 3986.00  219.08
  -4  -1  -1 4131.39  219.28
  -4  -1  -1 4090.39  219.38
   4  -2  -1   88.99    6.80
  -4   2  -1  101.59    6.70
   2  -4   1   84.89    8.50
  -4  -2   1   90.49    6.80
   4   2   1   91.29    6.70
   2   4  -1  108.09    6.80
  -2   4   1  104.99    8.30
   4   2   1   90.79    7.00
  -2  -4  -1   93.89    6.80
  -4   2  -1   88.99    6.30
  -2   4  -1   92.39    5.70
   4   2  -1  102.79    7.00
   2   4   1   97.99    6.40
   4  -2   1  106.69    6.70
   2  -4  -1   92.69    9.70
  -2  -4   1   98.49    7.20
  -4   2   1  105.49    7.40
   2   4   1   95.49    7.50
  -4  -2  -1  105.09    7.40
   4  -2   1  100.29    7.00
  -4  -2  -1  103.79    7.70
  -2   4  -1   94.89    6.10
  -3  -4  -1   23.50    3.40
   3  -4   1   30.50    4.40
  -4   3  -1   28.90    3.30
   3   4  -1   31.90    3.40
  -4  -3   1   31.60    4.10
  -4   3  -1   29.80    3.00
   4   3   1   29.30    3.60
   4  -3  -1   29.80    2.80
   4   3   1   26.60    4.00
   4  -3  -1   24.80    3.90
   4  -3  -1   26.40    3.00
  -3  -4  -1   26.40    4.30
   3  -4  -1   31.20    5.10
   3   4   1   31.80    3.40
   4  -3   1   36.20    3.90
   4   3  -1   31.00    3.50
  -3  -4   1   25.80    4.20
  -4  -3  -1   25.10    3.80
  -4   3   1   29.00    4.10
   4  -3   1   31.30    2.90
  -3   4  -1   30.90    3.00
   3   4   1   34.00    4.50
  -4  -3  -1   31.90    4.50
   4   4   1  113.29    9.10
   4  -4   1  209.98   13.90
   4   4   1  118.89    8.50
  -4  -4   1  129.39    9.40
  -4   4  -1  119.99    8.20
  -4  -4  -1  209.88   14.60
   4   4  -1  208.78   13.30
  -4   4   1  220.18   14.30
  -4   4  -1  122.69    7.70
   4  -4  -1  120.79    9.70
   0   5   1   84.49    9.10
  -5   0   1  105.69    7.80
   5   0   1   99.39    7.40
   0   5   1   78.09   10.80
  -5   0  -1  102.39    7.60
   5   0  -1  100.49    7.60
   5   0   1  100.99    7.30
   5   0  -1  112.39    7.40
   0   5  -1  118.59    8.70
   0   5  -1  103.19    7.00
  -5   0  -1  105.19    7.40
   0   5   1  100.69    6.30
   5   1   1  743.03   43.00
   1   5  -1  792.22   44.80
   5  -1  -1  748.83   42.80
   5  -1  -1  765.02   42.60
  -5   1  -1  748.13   42.80
   5   1   1  746.93   42.70
  -1  -5  -1  828.42   49.30
  -5  -1   1  744.53   43.00
  -5   1  -1  758.22   42.70
  -5  -1  -1  811.82   45.50
  -1   5  -1  805.02   41.90
   5  -1   1  800.52   45.30
   1   5   1  781.12   42.10
  -1  -5   1  687.03   44.30
   5  -1   1  821.32   45.00
   5   1  -1  793.32   45.30
   1   5   1  739.23   43.90
  -5   1   1  772.62   45.40
  -1   5  -1  736.53   42.20
  -1   5  -1  800.42   43.00
  -5  -1  -1  789.32   45.60
  -2  -5  -1 5378.56  287.77
  -2   5   1 5227.48  286.77
  -5   2  -1 5139.09  279.57
   5  -2  -1 5332.77  279.27
   5   2   1 5125.89  279.67
  -2   5   1 4683.53  289.67
   5  -2  -1 5178.08  279.97
   5   2   1 5205.18  280.07
  -5  -2   1 5097.29  279.97
   2   5  -1 4939.81  285.37
  -5   2  -1 5293.77  279.47
   2   5   1 5398.76  280.87
   5  -2   1 5140.89  285.77
  -2   5  -1 5086.19  281.87
  -5  -2  -1 5159.58  286.27
   5   2  -1 5582.04  286.07
  -5  -2  -1 5481.15  286.07
   5   2  -1 4908.41  285.67
  -2  -5   1 4373.26  280.17
  -5   2   1 5474.15  286.17
  -2   5  -1 4990.20  278.97
   2   5   1 5091.39  279.07
   5  -2   1 5456.55  285.27
  -3  -5  -1  962.10   56.19
   5  -3  -1  898.01   53.49
  -5   3  -1  948.81   53.19
   5  -3  -1  910.51   52.49
  -5   3  -1  989.60   52.89
   3   5  -1  938.31   54.39
  -3   5   1 1009.50   55.59
  -5  -3   1  919.11   53.79
   5   3   1  979.60   53.99
   5   3   1  901.01   53.29
   5   3  -1  990.60   55.09
   3   5   1  953.70   52.99
   5  -3   1  920.21   53.79
  -5  -3  -1  940.01   56.19
   3   5   1 1006.30   54.39
  -3  -5   1  945.11   54.19
   5   3  -1  973.60   54.69
   5  -3   1 1007.50   54.89
  -5   3   1  940.61   55.09
  -5  -3  -1 1035.50   55.19
  -3   5  -1  955.50   52.69
   3  -5  -1  936.61   56.39
  -5   4  -1 3114.09  173.88
   4   5  -1 3184.78  172.68
   4   5  -1 3099.59  172.58
  -5  -4   1 3025.00  174.88
  -5   4  -1 3308.97  173.48
   5   4   1 3177.08  174.88
   5   4   1 3080.19  174.08
   5  -4  -1 3138.59  173.08
   5  -4  -1 3272.07  175.18
  -4  -5   1 3259.37  175.28
   5  -4   1 3117.69  173.18
   5   4  -1 3170.58  172.88
   5   4  -1 3115.69  172.68
   4   5   1 3102.09  173.98
   4   5   1 3195.48  175.08
   4  -5  -1 3199.88  176.28
  -4   5  -1 3120.39  173.68
   5   5   1  157.18   11.50
   5   5  -1  144.19   10.00
   5  -5  -1  179.28   13.80
  -5   5  -1  157.18   11.10
   5  -5   1  125.59   11.60
   5   5   1  164.88   12.20
   5   5  -1  142.89   10.50
   6   0   1 3366.76  184.08
   6   0   1 3392.16  183.68
   0   6  -1 3429.46  184.28
   6   0  -1 3232.98  183.78
  -6   0  -1 3595.14  184.08
   0   6   1 3020.50  185.48
   0   6  -1 3342.57  183.48
   6   0  -1 3489.45  183.88
   0   6   1 3223.28  182.58
   1   6  -1  204.78   13.00
  -6   1  -1  170.48   12.60
   6   1   1  172.18   12.50
  -1  -6  -1  223.28   21.20
  -1   6   1  175.88   16.00
  -6   1  -1  195.08   12.50
   6  -1  -1  191.28   12.70
   6   1   1  187.28   12.80
   6  -1  -1  180.78   12.50
   1   6   1  206.58   14.40
   1   6   1  205.88   11.70
  -1  -6   1  193.38   16.90
  -1   6  -1  193.38   12.20
   6   1  -1  206.18   13.70
   6  -1   1  203.98   13.30
   6  -1   1  208.78   13.60
  -1   6  -1  205.48   12.70
  -6  -1  -1  235.18   14.10
   6   1  -1  210.48   13.50
  -6   2  -1 1598.74   95.09
   6  -2  -1 1617.34   95.29
   6   2   1 1650.13   95.19
   6   2   1 1761.92   95.79
   2   6  -1 1650.33   94.29
  -6   2  -1 1738.63   94.99
   2   6   1 1772.52   94.69
  -2   6  -1 1733.23   94.59
  -2   6  -1 1793.92   96.69
   2   6   1 1747.43   96.49
   6   2  -1 1722.73   94.99
   6   2  -1 1696.83   94.79
   6  -2   1 1743.23   94.89
  -6   3  -1   38.70    4.60
  -6   3  -1   43.00    6.00
   6   3   1   34.30    5.40
   6  -3  -1   41.40    5.50
   3   6  -1   29.00    4.10
  -3   6   1   40.00   10.00
   3   6  -1   28.40    4.50
   6   3   1   42.50    5.60
   3   6   1   43.70    6.10
   3   6   1   41.00    4.70
   6   3  -1   33.00    4.50
   6  -3   1   32.40    4.90
  -3   6  -1   42.60    4.50
   6   3  -1   31.00    4.60
  -3  -6   1   28.90    6.70
  -3   6  -1   49.60    9.40
   6  -4  -1 1098.39   62.19
   6  -4  -1 1110.69   64.09
   4   6  -1 1165.68   65.99
   6   4   1 1101.69   63.49
   4   6  -1 1152.58   65.99
   6   4   1 1140.59   64.79
   6  -4   1 1197.88   66.89
   6   4  -1 1153.18   66.19
   4   6   1 1145.29   63.19
   6   4  -1 1197.68   66.59
   4  -6  -1 1113.99   67.59
  -4   6  -1 1088.39   62.79
   4   6   1 1187.48   64.59
   5   6  -1  106.49    8.60
   6   5   1  111.49   10.30
   5   6  -1  109.39    9.50
   6   5   1  124.39   10.10
   6   5  -1  119.69   10.10
   5   6   1  114.49    9.60
   6  -5   1   87.69   10.20
   6   5  -1  113.29    9.00
   5   6   1  121.89   10.50
   6   6   1 2327.27  131.09
   6  -6  -1 2359.16  132.89
   0   7  -1    8.70    2.00
   7   0  -1    5.90    2.80
   0   7  -1    8.80    1.80
   0   7   1    2.60    4.30
   0   7  -1    7.80    3.90
   7   0   1    9.10    3.30
   0   7   1    6.00    1.60
   0   7  -1   10.00    3.00
   1   7  -1  193.38   12.70
   1   7  -1  195.18   12.10
   7   1   1  193.68   13.50
   7   1   1  172.48   13.30
  -1   7  -1  203.48   13.10
   1   7   1  212.18   15.20
  -1   7  -1  183.88   12.60
   7   1  -1  192.48   13.20
   1   7   1  195.88   11.90
   7   1  -1  185.78   13.80
   7  -1   1  201.78   13.50
   7   2   1 1987.20  114.99
   2   7  -1 1997.70  110.59
   2   7  -1 1958.10  110.89
  -2   7  -1 2155.28  115.69
   2   7   1 2163.98  116.39
  -2   7  -1 2043.90  114.29
  -2  -7   1 1927.11  118.59
   7   2  -1 2062.99  111.59
   7   2  -1 1944.21  111.59
   7  -2   1 2047.60  111.69
   2   7   1 2129.89  114.09
   3   7  -1  412.26   24.50
   7   3   1  456.75   27.60
   3   7  -1  405.66   24.50
   3   7   1  446.26   26.50
   7  -3   1  410.66   25.30
  -3   7  -1  437.16   26.40
   7   3  -1  407.16   25.60
  -3   7  -1  467.15   30.30
   7   4   1 1401.96   78.89
   4   7  -1 1435.16   78.89
  -4   7   1 1263.97   85.59
   7  -4  -1 1449.76   79.49
   4   7  -1 1408.96   78.79
   7  -4  -1 1338.07   77.19
   7   4  -1 1405.16   79.19
  -4   7  -1 1308.27   83.29
   7   4  -1 1413.96   79.59
   4   7   1 1503.35   79.99
   7  -4   1 1483.65   80.09
   4   7   1 1368.56   78.09
  -5   7   1  455.75   33.20
   5  -7   1  393.26   30.70
   7  -5  -1  415.26   27.30
   7   5   1  411.26   26.60
   5   7  -1  402.26   26.30
   5   7   1  425.46   26.80
   5  -7  -1  413.16   32.20
   7   5  -1  430.26   25.90
   7   6   1   22.00    6.00
   6   7  -1   19.40    5.00
   7  -6  -1   32.20    9.00
   6   7   1   26.80    6.30
   7   6  -1   15.50    5.00
   6  -7  -1   32.80   11.50
   7  -6   1   20.50    8.20
   7   7   1   93.09   11.80
   7  -7  -1   99.59   15.70
   7  -7   1   36.50   12.40
   7   7  -1   70.39    8.80
   0   8  -1 1339.67   71.79
   0   8  -1 1282.07   73.09
   0   8   1 1333.47   76.39
   0   8  -1 1246.68   73.59
  -1   8   1 2071.19  131.19
   1   8  -1 2456.85  127.39
   1   8  -1 2351.96  130.69
   1   8  -1 2276.97  128.09
   8   1   1 2454.55  134.49
   1   8   1 2431.16  132.49
  -1   8  -1 2348.27  133.59
  -1   8  -1 2241.08  133.19
   8   1  -1 2408.06  129.09
   1   8   1 2591.44  136.19
   2   8  -1   82.89    7.30
   8   2   1   60.99    7.90
   2   8  -1   81.39    7.00
   8  -2  -1   60.19    7.60
   2   8   1   77.99    9.50
   8   2  -1   69.39    7.90
   2   8   1   70.19    6.20
  -2   8  -1   62.09    7.30
  -2   8  -1   66.99    8.00
   3   8  -1   22.80    4.30
   8  -3  -1   29.40    6.00
  -3   8   1    2.60    9.00
   8   3   1   27.50    6.00
   3   8  -1   31.60    5.30
   3   8   1   30.30    4.80
   8   3  -1   26.80    5.40
   8  -3   1   34.50    6.30
   3   8   1   29.90    6.20
  -3   8  -1   39.10    7.30
   8   4   1  232.58   17.40
   8  -4  -1  235.18   17.30
   4   8  -1  185.18   15.90
   8  -4   1  231.78   16.70
   8   4  -1  217.58   15.40
   4   8   1  236.28   17.60
  -4   8  -1  230.68   21.10
   8  -5  -1 1934.31  107.09
  -5   8   1 1556.94  109.99
   5   8  -1 1908.41  102.09
   8   5   1 1978.60  106.59
   8   5  -1 1847.72  102.29
   5   8   1 1868.11  106.39
   8  -5   1 1937.21  104.29
  -5   8  -1 1706.33  114.19
   8   6   1  668.73   42.00
  -6   8   1  560.24   47.00
   6   8  -1  666.03   37.20
   8  -6  -1  763.82   44.70
   8  -6   1  561.54   40.10
   6   8   1  697.53   42.10
  -6   8  -1  597.54   49.20
   8   6  -1  637.54   37.30
  -7   8   1  864.31   60.19
   7  -8   1  846.02   58.79
   8  -7  -1  861.71   55.79
   7   8  -1  891.81   51.19
   7  -8  -1  804.02   59.49
   7   8   1  944.71   54.19
   8   7  -1  849.12   50.89
   9   0   1   22.90    6.10
   0   9  -1   21.30    4.80
   9   0  -1   22.50    5.60
   0   9   1   23.70    8.00
   9   1   1  549.85   33.90
  -1   9   1  573.44   38.20
   9  -1  -1  512.95   33.10
   1   9  -1  587.74   34.70
   1   9  -1  595.34   33.60
   1   9   1  612.24   35.80
   1   9   1  516.05   30.90
   9   1  -1  590.44   35.60
   9  -1   1  582.34   35.90
  -1   9  -1  543.55   32.70
   9   2   1  155.38   13.90
   2   9  -1  154.98   12.00
  -2   9   1  172.68   17.90
   9  -2  -1  149.29   13.40
  -2   9  -1  174.08   13.30
   9   2  -1  151.28   12.80
   9  -2   1  161.18   14.00
   2   9   1  179.88   15.40
   3   9  -1 2646.54  144.59
   9  -3  -1 2571.24  152.68
   9   3   1 2591.44  152.68
   3   9   1 2932.81  154.08
   9  -3   1 2646.04  145.89
  -3   9  -1 2855.81  153.08
   9   3  -1 2519.15  145.09
   9   4   1   93.49   11.10
   9  -4  -1   86.19   11.30
   4   9  -1   84.59    9.70
   9   4  -1  112.19   11.10
  -4   9  -1  112.69   13.70
   9  -4   1  121.39   13.10
   4   9   1   83.59   11.30
   9   5   1  291.47   21.70
   9  -5  -1  290.47   22.60
   5   9  -1  309.57   20.80
  -5   9  -1  293.87   27.00
   9  -5   1  317.27   24.50
   9   5  -1  293.77   21.40
   5   9   1  297.17   21.90
  -6   9   1   12.50   19.30
   6   9  -1   24.60    6.70
   9  -6   1   -0.50   10.70
   9   6  -1   14.60    6.60
   6   9   1   31.30   12.30
   7   9  -1  417.96   29.80
   0  10   1  739.13   44.40
   0  10  -1  683.33   41.00
  10   0   1  681.83   42.60
  10   0  -1  670.63   42.00
  10  -1  -1  736.43   46.80
  10   1   1  776.32   47.50
   1  10  -1  839.02   47.70
  -1  10   1  822.52   51.29
   1  10   1  810.02   48.90
  -1  10  -1  819.92   46.40
  10  -1   1  809.52   49.10
  10   1  -1  787.52   48.50
  -2  10   1   74.49   13.40
  10  -2  -1   66.09   10.80
  10   2   1   78.69   11.50
   2  10  -1   88.89    9.80
   2  10   1   71.29   12.50
  -2  10  -1   83.19   11.80
  10  -2   1   75.59   11.60
  10   2  -1   85.09   10.50
  10   3   1    4.30    7.10
  10  -3  -1    1.90    6.50
  -3  10   1    2.30   11.30
   3  10  -1    5.50    5.40
   3  10   1    7.50    7.10
  10   3  -1    7.30    5.90
  10  -3   1   -7.80    7.10
   4  10  -1   28.20    6.60
  -4  10   1   13.70   12.90
   4  10   1   10.50    7.80
  10  -4   1   31.60    9.60
   5  10  -1  633.94   39.70
  10  -5   1  677.23   52.89
   0  11   1   -8.30    9.90
  -1  11   1  228.08   22.90
   1  11   1  265.27   23.10
  -2  11   1 1016.30   64.09
   0   0  -2 8041.30  441.86
   0   0   2 7988.90  441.86
   0   0   2 8183.38  441.56
   0   0   2 8162.48  441.66
   0   1   2  462.35   28.30
   0   1  -2  471.45   28.30
   1   0  -2  465.75   26.90
   1   0   2  468.95   27.10
   0   1   2  512.05   29.10
  -1   0  -2  470.45   26.90
  -1   0   2  461.25   27.00
   0   1   2  499.15   28.10
   0  -1   2  463.35   26.60
   1   0  -2  471.15   27.20
   1   0   2  468.15   27.20
  -1   0   2  499.15   27.40
   1  -1  -2  522.55   30.60
   1  -1  -2  570.74   31.20
  -1  -1   2  565.54   29.40
   1   1   2  472.25   29.60
  -1  -1  -2  399.66   25.90
  -1   1  -2  508.65   29.30
   1  -1   2  470.65   24.10
   1   1  -2  404.06   24.50
   1   1  -2  418.96   24.10
  -1  -1  -2  466.65   24.90
   0  -2   2 1676.63   84.29
   2   0  -2 1387.16   83.79
   2   0   2 1434.36   83.79
   0   2   2 1662.03   85.99
   0   2  -2 1436.06   84.09
  -2   0  -2 1510.45   83.89
   2   0   2 1600.34   84.09
   2   0  -2 1440.86   83.79
   0  -2  -2 1579.64   84.19
   0   2   2 1498.85   85.29
  -2   0   2 1637.94   84.19
  -2   0  -2 1548.95   84.09
   0   2   2 1399.26   84.19
  -1   2   2 4894.11  257.67
  -2   1  -2 5039.50  263.07
   2  -1  -2 4787.72  262.97
  -1  -2  -2 4948.60  256.57
  -1   2   2 3915.11  256.07
   2   1   2 5060.99  263.57
   2  -1  -2 4535.85  263.07
  -1  -2  -2 4874.61  255.27
   1   2  -2 4600.54  255.07
  -1   2   2 4393.56  255.67
  -2  -1   2 4967.20  262.77
  -2   1  -2 4807.32  262.47
   1   2  -2 4646.04  254.47
  -2  -1  -2 4582.84  255.37
   2  -1   2 4914.31  254.87
   2  -1   2 4775.82  255.27
   2   1  -2 4527.15  254.87
  -1   2  -2 4692.13  263.37
   2   1  -2 4701.13  255.17
   1   2   2 4570.64  262.77
  -1  -2   2 4856.61  262.27
  -2  -1  -2 4730.23  255.37
  -2   1   2 4898.91  255.87
   2  -2   2 1077.39   57.59
  -2   2  -2 1120.79   59.49
   2  -2  -2 1045.80   60.99
   2  -2  -2 1082.39   61.29
   2   2   2 1043.50   59.99
  -2  -2   2 1122.89   59.89
   2  -2   2 1068.89   55.59
  -2   2   2  903.21   56.99
  -2   2   2 1091.59   56.39
   2   2  -2  973.80   55.89
   2   2  -2  997.10   56.09
  -2  -2  -2 1004.70   56.79
  -2   2  -2 1104.19   60.29
  -2  -2  -2  966.70   56.09
   2   2   2 1055.89   61.09
  -3   0  -2   92.69    6.40
   3   0  -2   85.59    6.20
   3   0  -2   94.29    6.40
  -3   0  -2   86.69    6.30
   0   3  -2   91.09    6.20
   3   0   2   90.99    6.30
   0  -3  -2   92.99    6.20
   3   0   2   97.49    6.60
   0   3   2   84.59    8.20
  -3   0   2  100.59    6.80
   0   3   2   84.69    6.20
   0   3   2   89.49    9.10
  -1   3   2 3977.10  208.68
  -3   1  -2 3461.95  197.38
  -1  -3  -2 3918.51  210.48
   3   1   2 3379.16  197.78
   1   3  -2 3671.23  207.28
   3  -1  -2 3439.46  197.58
   3  -1  -2 3549.74  197.28
   1  -3   2 4066.59  208.18
   1   3  -2 3509.25  207.88
  -1   3   2 3504.15  209.68
   3   1   2 3792.92  197.98
  -3  -1   2 3646.94  197.48
  -3   1  -2 3614.84  197.18
  -1   3   2 3685.83  210.88
  -1   3  -2 4034.20  198.08
   1   3   2 3474.55  197.18
   3  -1   2 3850.01  207.98
   1  -3  -2 3667.23  197.38
  -3   1   2 4000.00  208.78
  -3  -1  -2 3981.60  208.58
   3   1  -2 3665.33  207.88
   3  -1   2 3880.21  208.08
  -3  -1  -2 3731.33  208.28
  -2   3   2  196.38   11.60
  -2  -3  -2  179.48   12.60
  -3  -2   2  174.88   10.90
  -3   2  -2  175.58   10.70
   3   2   2  175.18   11.80
   3   2   2  184.68   11.10
  -2  -3  -2  176.58   11.40
  -2   3   2  147.59   12.60
   3  -2  -2  167.48   10.80
   3  -2  -2  177.28   11.40
  -3   2  -2  175.18   10.80
   2   3   2  171.38   10.80
   3   2  -2  188.58   11.10
  -3  -2  -2  190.18   12.10
  -3  -2  -2  168.58   11.90
  -3   2   2  191.78   12.40
   3  -2   2  184.38   11.30
  -2   3  -2  157.38   10.90
   2  -3  -2  172.08   13.00
  -2   3  -2  173.08   10.00
   3  -2   2  206.18   11.20
   2   3   2  166.98   12.30
  -2  -3   2  188.78   10.80
   3  -3   2 5702.13  289.87
   3  -3  -2 5184.58  288.67
   3  -3   2 5011.60  288.27
   3  -3  -2 5125.29  288.47
  -3   3  -2 5212.68  286.87
   3   3   2 5349.16  287.57
   3   3  -2 5112.19  288.07
  -3   3  -2 5207.68  287.27
  -3  -3  -2 5047.19  288.67
   3   3   2 5290.57  288.87
  -3   3   2 5593.44  290.07
  -3  -3  -2 5212.48  289.37
  -3  -3   2 5442.26  287.67
  -4   0  -2 1754.42   92.09
   4   0   2 1752.72   92.29
   0   4   2 1569.34   91.49
  -4   0  -2 1597.34   91.89
   0   4  -2 1608.24   91.49
   4   0   2 1728.83   91.89
   0   4   2 1738.93   94.89
   0  -4  -2 1623.34   91.39
  -4   0   2 1756.22   92.39
   0   4   2 1498.85   93.79
   4   0  -2 1657.13   91.89
  -4   1  -2 2630.54  141.79
   4   1   2 2672.83  142.49
   1   4  -2 2377.26  139.89
  -1  -4  -2 2589.34  144.19
   4  -1  -2 2494.55  141.99
   1   4  -2 2553.54  140.59
  -4   1  -2 2517.05  141.79
  -1  -4  -2 2434.16  140.49
   4  -1  -2 2431.46  141.49
  -1   4   2 2813.12  141.79
  -1   4   2 2656.23  144.09
  -1   4   2 2440.06  142.99
  -4  -1   2 2601.64  142.09
  -1  -4   2 2612.64  141.59
   4  -1   2 2517.75  140.69
  -4  -1  -2 2546.05  141.19
   4   1  -2 2585.24  140.89
  -1   4  -2 2800.82  142.79
   4  -1   2 2576.34  140.89
  -4  -1  -2 2496.05  140.99
   1  -4  -2 2616.14  141.29
  -4   1   2 2738.73  141.59
   1   4   2 2420.26  141.39
   4   2   2  653.03   36.00
  -4   2  -2  631.44   34.60
  -4  -2   2  624.14   35.20
   4   2   2  631.64   35.00
   2   4  -2  631.04   36.20
  -2  -4  -2  648.94   39.00
  -2   4   2  669.63   41.10
   4  -2  -2  608.64   34.50
  -4   2  -2  596.84   34.70
   4  -2  -2  573.64   35.10
   2  -4   2  706.63   36.60
  -2   4   2  616.14   36.90
   4  -2   2  676.83   37.00
  -4  -2  -2  652.93   37.70
   4  -2   2  648.84   36.70
   2   4   2  621.94   34.70
   4   2  -2  627.34   36.70
  -2   4  -2  623.84   33.80
  -4   2   2  686.23   38.00
  -4  -2  -2  597.54   37.10
   2  -4  -2  649.64   34.50
   2   4   2  581.24   36.60
  -2   4  -2  538.05   34.70
  -3   4   2  162.98   13.20
   4  -3  -2  186.68   12.30
  -4  -3   2  204.88   13.10
   4  -3  -2  202.08   13.50
  -4   3  -2  190.98   12.20
  -3  -4  -2  175.98   11.40
  -4   3  -2  198.38   12.10
   3   4  -2  170.08   10.80
  -3  -4  -2  178.28   13.20
   3   4   2  199.68   14.40
  -3   4  -2  197.28   12.10
  -4   3   2  201.38   13.30
   3   4   2  195.58   12.50
   4  -3   2  178.68   11.50
   3  -4  -2  205.48   15.40
  -4  -3  -2  162.98   12.30
   4   3  -2  182.58   11.20
   4  -3   2  179.28   11.30
  -3  -4   2  208.68   13.20
  -3   4  -2  189.08   12.30
   4   4  -2  770.72   43.70
  -4  -4  -2  782.62   44.40
   4   4   2  861.41   50.89
  -4   4  -2  913.71   50.39
  -4  -4   2  919.11   51.79
  -4   4  -2  854.61   50.29
   4  -4  -2  960.50   51.49
   4  -4  -2  866.71   52.49
   4   4   2  945.31   52.79
   5   0   2   23.60    3.70
   0   5   2   22.90    7.40
   0  -5  -2   22.70    2.90
   5   0   2   30.40    4.20
   0   5  -2   20.40    2.80
   0   5   2   10.30    4.40
   0   5  -2   20.90    2.20
   0   5  -2   21.70    2.40
  -5   0  -2   15.30    3.20
   0   5   2   21.70    2.80
   5   0  -2   19.40    3.30
  -5   0   2   27.70    4.40
  -5   0  -2   17.80    3.20
  -5   1  -2  108.99    8.50
  -1   5   2  111.39   12.50
  -1  -5  -2  131.29    8.80
  -1   5   2  146.29   10.70
  -5   1  -2  120.79    8.80
   5   1   2  120.09    9.20
   5   1   2  117.99    8.80
  -1   5   2  136.89   13.00
   5  -1  -2  127.69    8.90
  -5  -1   2  125.89    9.40
   1   5  -2  129.19    8.70
  -1  -5  -2  118.29   15.60
   5  -1   2  131.89    9.10
   5  -1   2  152.88    9.60
   1   5   2  113.39    7.90
   5   1  -2  138.59    9.30
  -5  -1  -2  130.89    9.50
  -1   5  -2  127.19   10.00
   1  -5  -2  121.79    7.70
  -1   5  -2  116.09    7.40
  -5   1   2  141.09   10.30
  -1   5  -2  126.09    7.30
  -5  -1  -2  134.19   10.00
  -1  -5   2  142.39   10.10
  -2   5   2 2931.11  157.48
  -2   5   2 2583.04  152.28
   5  -2  -2 2617.94  156.98
  -5  -2   2 2898.11  157.38
  -5   2  -2 2753.92  156.58
   5   2   2 2939.71  156.98
  -5   2  -2 2881.81  156.68
   2   5  -2 2679.63  151.88
   5  -2  -2 2901.31  156.48
   5   2   2 3048.90  157.88
  -2  -5  -2 2830.02  152.48
  -5  -2  -2 2711.43  153.58
  -5  -2  -2 2795.62  153.08
  -2   5  -2 3076.99  155.78
   2  -5  -2 2856.91  155.68
   5  -2   2 2908.41  152.88
   2   5   2 2966.80  156.58
   2   5   2 2704.13  158.88
   5  -2   2 2713.73  152.28
  -2  -5   2 2544.15  156.98
   5   2  -2 2829.72  152.68
  -5  -3   2 1106.79   63.59
  -3   5   2 1127.89   65.99
  -5   3  -2 1130.99   62.69
   5   3   2 1206.78   64.39
   5   3   2 1077.09   62.99
  -5   3  -2 1071.39   62.49
   5  -3  -2 1080.59   63.59
   3   5  -2 1045.30   60.69
   5  -3  -2 1044.90   62.19
   3  -5   2 1175.68   62.29
  -5  -3  -2 1042.70   61.69
   5  -3   2 1096.19   61.59
   3   5   2 1150.48   64.99
  -3   5  -2 1149.89   61.99
   3   5   2 1153.78   62.79
   5   3  -2 1074.19   61.19
  -3   5  -2 1160.58   62.19
   5  -4  -2 2286.97  127.09
  -5   4  -2 2272.17  126.79
  -4  -5  -2 2393.16  127.39
  -5  -4   2 2243.18  128.09
   4   5  -2 2370.76  126.79
   4  -5   2 2354.56  127.99
   5   4   2 2304.57  130.19
   4  -5  -2 2512.65  131.09
  -5  -4  -2 2421.86  127.69
   5   4  -2 2323.57  126.89
   4   5   2 2290.67  127.19
  -4   5  -2 2425.06  126.59
   5  -4   2 1936.51  127.19
  -4  -5   2 2101.39  128.09
  -4   5  -2 2277.87  126.29
  -5  -5  -2    6.00    3.80
   5   5   2   10.90    4.00
   5  -5  -2    4.60    3.50
   5   5  -2    5.80    2.60
  -5   5  -2   10.50    3.10
   5  -5   2    4.90    4.50
   6   0   2 5319.67  286.47
   6   0   2 5505.95  287.07
   0   6   2 4814.42  285.57
  -6   0  -2 5365.26  286.77
   6   0  -2 5152.48  286.57
   0   6  -2 4995.60  285.57
   0   6  -2 5232.18  285.37
   0  -6  -2 5455.75  285.47
   6   1   2  149.99   10.80
  -6   1  -2  133.19    9.90
  -1   6   2  141.49   10.70
  -1   6   2  126.19   13.10
   6   1   2  128.69    9.90
   1   6  -2  126.39    8.30
   1   6  -2  123.99    8.70
   6  -1  -2  145.49   10.30
  -6   1  -2  134.99   10.30
  -1   6  -2  136.99    8.70
   6   1  -2  130.69    9.50
  -1   6  -2  137.89    9.80
   1   6   2  131.39    9.00
  -1   6  -2  144.99   11.10
   6  -1   2  129.19   10.00
  -6   2  -2 1071.49   60.89
  -2   6   2 1056.49   60.79
   6  -2  -2 1082.19   61.29
  -6   2  -2 1076.39   60.69
   6   2   2 1149.58   61.99
   6  -2  -2 1068.19   60.39
   6   2   2 1018.90   60.79
  -2   6   2  923.71   55.09
  -2  -6  -2  974.90   55.29
   2   6  -2  963.70   54.89
   2   6   2 1112.09   60.39
   6   2  -2  993.60   55.89
   2   6   2  992.10   63.09
  -2   6  -2 1091.49   60.19
  -2   6  -2  924.61   59.99
  -2  -6   2 1231.28   62.49
   6  -2   2 1037.00   56.29
  -6  -2  -2  973.40   56.19
  -2   6  -2 1132.29   59.59
  -6   3  -2   94.29    8.70
  -3  -6  -2   99.39    8.10
  -6   3  -2   97.49    9.00
   6   3   2   95.19    8.70
  -3   6   2  129.99   16.20
   3   6  -2   96.99    7.30
   6   3   2  122.69   10.20
   6  -3  -2  108.29    8.00
  -3  -6   2   97.29   10.80
  -3   6  -2  108.69   10.40
   3   6   2  110.19    8.20
   6  -3   2  112.99    9.30
  -3   6  -2  108.99    7.40
   3   6   2  115.39   12.10
  -6  -3  -2  104.29    9.10
   6   3  -2  102.59    8.20
  -6   4  -2  819.12   47.70
   6  -4  -2  823.62   47.20
   4   6  -2  850.21   49.10
  -4   6   2  938.01   55.79
   4  -6   2  941.61   51.69
   6   4  -2  847.12   49.50
   4   6   2  838.22   47.70
  -4   6  -2  840.62   46.60
  -6  -4  -2  872.11   50.19
   6  -4   2  780.92   50.29
  -4   6  -2  857.41   47.00
   5   6  -2   29.10    4.40
   5  -6   2   25.80    7.10
  -6   5  -2   19.60    4.00
   6  -5  -2   23.50    6.50
   6  -5  -2   28.10    7.00
   5   6   2   23.70    6.40
   6  -5   2   22.00    6.10
   5  -6  -2    8.40    7.10
  -5   6  -2   21.20    4.20
   6   5  -2   22.70    4.20
  -5   6  -2   19.70    3.30
   6   6  -2 3159.48  181.98
  -6   6  -2 3564.74  196.28
   6  -6   2 3416.86  183.58
   6  -6  -2 3518.25  200.88
   6   6   2 3658.83  199.58
   7   0   2  168.88   12.10
   0   7  -2  149.39   10.10
   0   7  -2  164.08   10.50
   0   7  -2  155.88   10.00
   0   7   2  149.39   10.20
  -7   0  -2  160.48   11.70
   7  -1  -2  175.28   12.50
   1   7  -2  176.18   12.90
  -1   7   2  195.78   13.00
  -7   1  -2  155.08   12.00
   1   7  -2  172.88   11.30
   7   1   2  171.38   14.20
  -1   7   2  137.79   15.90
   7  -1   2  202.18   13.70
   1   7   2  172.88   11.00
  -1   7  -2  163.28   10.70
   1   7   2  130.09   14.70
  -1   7  -2  175.88   10.60
  -1   7  -2  201.48   12.70
  -7  -1  -2  187.08   13.10
  -2   7   2 2232.68  120.29
   7   2   2 2027.80  118.29
   2   7  -2 2178.88  120.49
  -2   7   2 2207.38  125.89
  -2   7  -2 2021.60  117.09
   7   2  -2 1954.70  121.49
  -2   7  -2 2246.78  117.09
   2   7   2 2168.78  118.09
  -2   7  -2 2104.09  117.39
   7  -2   2 2347.97  122.29
  -2  -7   2 2310.67  120.99
  -7  -2  -2 2205.48  121.99
   2   7   2 2029.10  120.89
   3   7  -2 1499.85   85.79
  -3   7   2 1637.14   93.09
  -7   3  -2 1441.66   85.09
   7   3   2 1364.96   85.39
   7   3   2 1611.44   86.99
   7   3  -2 1549.24   86.89
   7  -3   2 1624.24   87.69
  -3  -7   2 1620.64   87.79
  -3   7  -2 1474.15   85.29
  -3   7  -2 1570.94   84.39
   3   7   2 1546.05   88.09
   7   3  -2 1441.46   86.99
   3   7   2 1574.24   85.19
  -7  -3  -2 1540.95   87.29
   4   7  -2 1426.46   79.09
   7  -4  -2 1292.07   77.39
   7   4   2 1341.47   77.69
  -4   7   2 1444.16   87.29
  -7   4  -2 1331.37   75.69
  -4   7  -2 1420.06   78.59
   7  -4   2 1342.67   80.89
   7   4  -2 1454.15   79.89
   4   7   2 1373.56   78.59
   5   7  -2   70.39    7.20
  -5   7   2   90.09   16.40
   7   5   2   98.69   12.00
   7  -5  -2   95.69   12.00
  -7   5  -2  102.29    8.70
   7  -5   2   46.80    8.90
   7   5  -2   79.19    8.00
  -5   7  -2  128.59   16.10
   5   7   2  106.79   12.40
   6   7  -2   53.99    7.20
   6  -7   2   66.49   12.70
   7  -6  -2   52.09   10.50
   7   6   2   59.39    9.80
   7  -6   2   28.70   11.20
   6   7   2   57.49    9.40
   6  -7  -2   41.50   12.40
   7   6  -2   55.99    7.70
   7  -7  -2  230.68   24.00
   7   7  -2  230.28   16.50
   7   7   2  225.68   19.40
  -8   0  -2  136.89   11.40
   0   8  -2  122.19    8.90
   8   0  -2  122.39   10.40
   8   0   2  138.89   11.90
   0   8  -2  121.39    9.10
   0   8   2  117.69    9.10
   1   8  -2 1561.44   84.79
   8  -1  -2 1470.95   83.99
  -8   1  -2 1429.36   84.69
   8   1   2 1544.95   84.59
   1   8  -2 1528.05   84.69
  -8  -1  -2 1490.55   86.39
   1   8   2 1443.46   82.19
   8   1  -2 1597.54   86.39
  -1   8  -2 1565.84   82.69
  -1   8  -2 1442.66   82.19
   8  -1   2 1454.95   88.89
   8   2   2  184.68   15.30
   2   8  -2  163.28   10.90
   2   8  -2  155.98   10.60
  -8   2  -2  167.28   13.50
  -2   8   2  119.59   16.50
   8  -2  -2  186.98   14.30
  -8  -2  -2  151.38   13.00
  -2   8  -2  208.58   12.60
   2   8   2  184.88   17.20
   2   8   2  179.48   12.50
   8   2  -2  153.58   12.00
   8  -3  -2   12.80    5.30
  -3   8   2   11.60    9.80
  -8   3  -2    8.10    5.00
   3   8  -2   10.40    3.30
   8   3   2    7.80    5.90
   8   3  -2    7.40    4.20
   3   8   2   21.10    8.00
  -3   8  -2    3.60    4.00
  -4   8   2  129.69   21.60
   4   8  -2  121.29   10.00
   8   4   2  116.59   13.20
   8  -4  -2  108.89   11.90
  -8   4  -2  113.69   10.30
   8  -4   2  120.09   13.90
   8   4  -2  128.69   10.90
   4   8   2  128.49   14.20
  -4   8  -2  121.09   11.80
  -5   8   2 1145.59   75.39
   5   8  -2 1168.78   65.79
   8   5   2 1250.57   70.99
   8  -5  -2 1150.88   70.69
   5   8   2 1215.78   71.59
   8   5  -2 1161.68   66.49
  -6   8   2  222.48   31.70
   8  -6  -2  250.97   21.60
   6   8  -2  230.98   15.90
   8   6   2  246.38   20.30
   8   6  -2  237.08   17.00
   8  -6   2  177.58   21.20
   6   8   2  239.78   21.20
   7   8  -2  925.21   53.79
   8   7  -2  897.91   53.49
   9   0  -2   13.50    5.20
   0   9   2   10.40    4.80
   0   9  -2   23.00    5.20
   0   9   2    0.50    8.00
   9   0   2   13.30    6.80
   9  -1  -2  870.01   50.19
   9   1   2  887.01   50.99
   1   9  -2  836.42   48.60
   9   1  -2  871.91   50.69
   9  -1   2  881.11   51.59
   1   9   2  772.72   53.19
  -2   9   2   19.50   10.40
   9  -2  -2   22.20    6.20
   2   9  -2   29.80    4.80
   9   2   2   10.60    6.20
   9   2  -2   24.60    6.30
   2   9   2   22.60    8.70
   9  -2   2   24.10    7.20
   9   3   2 1845.72  103.39
   9  -3  -2 1735.23  102.49
  -3   9   2 1531.15  102.19
   3   9  -2 1875.31   99.79
   9   3  -2 1781.62   97.79
   3   9   2 1843.12  104.79
   9  -3   2 1723.73   98.89
   9   4   2   75.29   12.30
   9  -4  -2   62.99   10.90
  -4   9   2  105.99   18.20
   4   9   2   67.49   11.20
   9  -4   2   70.29   12.30
   9   4  -2   59.69    9.70
  -5   9   2  438.06   38.50
   9   5  -2  456.95   28.90
   5   9   2  649.24   49.90
   9   6  -2   46.00    8.60
  10   0   2  813.12   45.80
   0  10   2  626.04   47.90
  10   0  -2  745.53   44.30
  10   1   2 1146.39   64.49
   1  10   2 1002.80   66.49
  10   1  -2 1022.70   60.89
  10  -1   2 1066.09   62.19
  10   2   2  269.57   22.20
  10   2  -2  257.87   19.60
  10  -2   2  261.17   21.70
   2  10   2  285.17   24.60
  -3  10   2   33.60   14.50
  10  -3   2   66.79   11.90
  10  -4   2  246.18   23.30
  10  -5   2  622.14   42.80
   0   0   3 6515.15  408.86
   0   0  -3 7931.41  406.46
   0   0   3 7461.95  407.06
   0   0   3 7803.52  406.06
  -1   0  -3   46.30    5.90
   0   1   3   37.20    4.70
   1   0   3   23.00    4.20
   0  -1  -3   28.50    4.30
   0   1   3   32.10    4.90
   0  -1   3   30.40    4.60
   1   0   3   38.00    6.40
  -1   0   3   23.80    4.60
   0   1   3   28.70    4.60
  -1   0   3   33.90    5.50
   0  -1   3   36.90    3.30
   1   0  -3   28.00    5.60
  -1   0  -3   27.70    4.50
  -1   0   3   26.40    3.90
   0   1  -3   31.90    4.60
   0  -1   3   32.50    3.50
  -1   1   3  885.91   52.49
   1   1   3  871.91   47.40
   1   1   3  869.21   47.20
   1  -1   3  790.32   50.39
  -1  -1   3  823.62   46.80
   1  -1   3 1039.50   50.89
  -1   1  -3  848.82   46.90
  -1   1   3  954.20   51.59
  -1  -1  -3  937.21   52.69
  -1   1   3  867.61   51.59
   1   1  -3  885.01   51.69
  -1  -1   3  752.22   45.80
  -1  -1   3  768.02   46.90
  -2   0  -3 1678.33   94.99
   2   0   3 1612.34   94.59
   0   2  -3 1717.03   95.79
  -2   0  -3 1681.73   94.29
   2   0  -3 1659.03   94.59
   2   0  -3 1646.44   94.29
   0   2   3 1803.32   95.69
   0   2   3 1886.71   95.79
   2   0   3 1522.25   94.39
   0   2   3 1861.31   95.99
   2  -1  -3 3825.82  211.08
  -2  -1   3 3774.32  209.48
  -1   2   3 4262.17  216.98
  -1  -2  -3 4148.79  216.88
   2  -1  -3 3894.01  210.58
   2   1   3 3879.51  209.78
  -2   1  -3 3719.43  209.18
  -2   1  -3 3210.68  210.18
   1  -2   3 4083.39  216.78
   1   2  -3 3644.74  216.28
  -1   2   3 4372.46  217.58
  -1  -2  -3 3964.90  218.58
  -1   2   3 3972.50  218.28
  -2   1   3 3608.64  216.78
  -2  -1  -3 3721.83  216.48
   1  -2  -3 4034.50  210.18
   2   1  -3 3690.03  215.68
   2   1  -3 3873.81  216.28
   2  -1   3 3738.23  217.58
  -2  -1  -3 4223.08  216.98
  -1   2  -3 4336.47  210.48
   1   2   3 3997.90  211.08
   1   2   3 3596.44  209.78
  -2  -2   3 1087.39   56.69
   2  -2   3 1335.57   66.49
  -2   2   3 1262.17   67.79
   2   2  -3 1149.69   64.69
  -2   2   3 1029.20   66.39
   2   2  -3 1143.49   65.39
   2  -2   3 1148.89   64.49
  -2   2  -3  970.50   56.09
  -2  -2  -3 1158.48   66.59
   2  -2  -3  994.20   58.69
  -3   0  -3   56.19    5.60
   0   3  -3   55.89    7.00
   0  -3  -3   51.79    5.50
   0   3   3   49.99    6.80
   0   3   3   49.50    7.20
  -3   0  -3   51.49    5.00
  -3   0   3   49.40    5.80
   3   0   3   51.59    5.40
   3   0   3   58.59    5.10
   3   0  -3   50.09    4.70
   0   3   3   48.30    7.60
   3  -1  -3  462.15   28.90
  -3  -1   3  496.45   29.00
  -1  -3  -3  426.86   29.00
  -3   1  -3  497.55   28.50
  -1   3   3  446.66   28.00
  -1   3   3  482.55   27.40
  -1   3   3  468.35   26.30
   3   1   3  476.45   29.70
   1   3  -3  410.16   25.40
  -1  -3  -3  458.45   25.90
   3  -1  -3  492.95   29.30
  -3   1  -3  542.35   29.70
   3   1   3  520.75   29.00
  -3  -1  -3  441.96   25.90
   3  -1   3  452.45   25.40
   3   1  -3  415.56   25.00
   1   3   3  468.45   28.80
  -3  -1  -3  430.66   25.80
  -1   3  -3  549.74   29.60
   3  -1   3  396.16   25.50
   1   3   3  486.85   30.60
   3   1  -3  408.96   25.40
  -3   2  -3  146.89   10.30
   2   3  -3  113.29    8.40
  -2   3   3  116.39   10.80
  -2  -3  -3  122.79   11.20
   3   2   3  156.48    9.90
   3  -2  -3  143.19   11.20
   3  -2  -3  135.19   10.40
   2  -3   3  126.99    9.40
  -2  -3  -3  126.59    9.10
  -2   3   3  133.09   12.70
  -3  -2   3  142.39    9.60
   2   3  -3  126.49    7.50
  -3   2  -3  147.89    9.20
   3   2   3  120.39   11.00
   3  -2   3  109.09   10.70
  -2  -3   3  131.19    8.90
   2   3   3  139.39    9.50
  -3  -2  -3  123.99    9.10
   3   2  -3  127.89    8.80
   2  -3  -3  142.49    9.90
   3  -2   3  121.39    8.10
   3   2  -3  119.99    7.90
  -3  -2  -3  115.99    9.60
   2   3   3  117.29   11.20
  -3  -3  -3 4933.71  298.97
   3  -3  -3 5201.58  297.37
   3  -3   3 5822.72  298.67
   3   3   3 5693.43  295.57
   3   3  -3 5562.64  298.17
  -3  -3   3 5126.09  295.17
  -3   3  -3 5379.76  294.37
   3  -3  -3 5699.83  295.97
  -3   3  -3 5281.97  295.77
   3   3  -3 5236.48  297.17
  -3  -3  -3 5675.33  298.77
   0   4   3 1317.77   74.59
   4   0   3 1291.87   71.99
   0   4   3 1127.99   72.69
  -4   0  -3 1286.17   72.29
   4   0   3 1326.97   72.49
   0  -4  -3 1350.16   72.09
  -4   0   3 1286.97   72.69
   4   0  -3 1298.17   71.99
   0   4   3 1362.46   74.19
   0   4  -3 1226.28   72.69
  -4   0  -3 1290.87   71.99
  -4   1  -3 3791.82  200.18
   4   1   3 3559.84  201.18
  -1   4   3 3709.93  191.38
  -4  -1   3 3508.85  200.68
   4  -1  -3 3601.24  200.68
   4  -1  -3 3363.96  200.08
   1   4  -3 3297.97  190.58
   4   1   3 3903.21  200.58
  -1   4   3 3646.24  193.58
  -4   1  -3 3939.31  200.98
   1   4   3 3341.87  200.08
   4  -1   3 3644.94  191.08
   4   1  -3 3535.25  190.68
   4   1  -3 3465.85  190.78
  -4  -1  -3 3640.14  191.48
   1  -4  -3 3528.85  200.38
   4  -1   3 3147.08  190.48
   1   4   3 3601.64  202.48
  -4   1   3 3280.77  191.88
  -4  -1  -3 3380.56  191.08
  -1   4  -3 4006.40  200.88
  -2   4   3  444.66   29.10
   4  -2  -3  462.65   27.20
   4   2   3  459.35   27.80
  -4   2  -3  475.25   26.60
  -2  -4  -3  439.46   25.30
  -4  -2   3  440.36   26.60
   2   4  -3  439.96   25.00
  -4   2  -3  474.95   25.80
   4   2   3  484.95   26.50
   2   4  -3  428.86   23.70
   2   4   3  374.36   28.20
  -4  -2  -3  391.46   25.60
   4   2  -3  432.16   24.60
   4   2  -3  428.66   25.10
  -4  -2  -3  421.56   25.40
   2   4   3  483.35   26.30
  -2   4  -3  399.26   26.60
   4  -2   3  366.26   24.90
   4  -2   3  435.26   24.90
  -2  -4   3  401.16   25.60
  -4   3  -3   87.89    7.30
   4  -3  -3   76.69    9.70
   3   4  -3  122.99    8.40
   4  -3  -3   78.49    8.50
  -4  -3   3   79.79    7.80
  -4   3  -3   89.09    6.30
   3   4  -3   97.09    6.70
  -3  -4  -3   92.79    8.20
   4   3   3   73.29    9.10
   4   3   3   94.29    7.60
   3   4   3   64.19    9.30
   3   4   3   92.79    7.30
   3  -4  -3   84.69    7.30
   4  -3   3   82.59    7.80
  -4  -3  -3  100.79    8.60
  -3   4  -3   79.79    7.40
  -3  -4   3   70.99    7.40
   4   3  -3  107.69    8.20
   4   3  -3  112.59    7.30
  -4   4  -3   83.79    6.10
   4  -4  -3   87.39    8.00
   4   4  -3   88.99    6.50
   4  -4  -3   86.19   10.80
   4   4   3   86.49    7.70
   4   4   3   62.59    9.60
   4  -4   3   89.09    7.40
  -4  -4  -3   83.19    9.10
   4   4  -3   96.39    7.80
  -4  -4   3   80.09    8.60
   0  -5  -3   25.30    3.80
  -5   0  -3   21.80    4.40
   0   5  -3   24.60    4.50
   0   5   3   18.10    5.90
   5   0   3   20.90    4.10
   5   0  -3   24.60    5.30
   0   5   3   20.30    4.80
  -5   0  -3   29.60    4.60
   5   0   3   19.20    4.40
   5   0  -3   25.10    4.30
   1   5  -3  892.51   51.89
  -1  -5  -3  905.51   51.99
  -1   5   3  940.11   54.89
   5   1   3  984.00   55.09
  -5   1  -3  992.30   54.39
  -5   1  -3  917.51   53.79
   5   1   3  952.10   53.99
  -5  -1   3  906.21   54.69
   5  -1  -3  916.51   53.69
   5  -1  -3  942.41   54.19
  -1   5   3  950.60   52.59
  -1   5  -3 1045.70   54.39
  -5  -1  -3  976.90   53.69
   5  -1   3  895.51   52.39
   1  -5  -3 1035.50   53.69
   5   1  -3  873.01   52.09
   5   1  -3  945.71   52.19
   1   5   3  869.41   53.49
   1   5   3  917.71   56.29
  -5  -1  -3  907.01   52.59
  -2  -5  -3 2844.62  158.38
   5   2   3 2843.52  158.68
  -5  -2   3 2691.03  157.88
   5   2   3 2906.11  157.48
  -5   2  -3 2767.92  156.88
  -2   5   3 2935.11  164.38
   2   5  -3 3086.89  158.38
  -5   2  -3 2947.61  157.58
   5  -2  -3 2777.82  157.98
  -2  -5   3 3162.18  156.68
   5   2  -3 2755.42  158.38
   2  -5  -3 2944.51  158.08
   5   2  -3 2815.12  158.08
  -5  -2  -3 2777.32  158.78
   5  -2   3 2905.51  158.68
  -2   5  -3 2533.25  159.48
   2   5   3 2942.11  157.18
   3   5  -3  679.53   39.30
  -3  -5  -3  702.13   40.80
  -5   3  -3  627.94   36.80
   5  -3  -3  616.34   37.50
   5   3   3  694.53   39.80
  -5  -3   3  639.44   38.50
   5   3   3  669.13   37.70
   3   5  -3  786.12   40.80
   5  -3  -3  693.83   39.40
   5   3  -3  757.52   40.30
  -5  -3  -3  710.63   41.20
   5  -3   3  595.34   40.50
   3  -5  -3  551.64   37.00
   3   5   3  681.63   37.50
  -3  -5   3  654.53   37.80
   4  -5   3 2177.38  108.29
  -5   4  -3 2047.90  110.29
   4   5  -3 2096.09  108.89
   5  -4  -3 2010.70  113.19
   5   4   3 2074.99  111.39
  -4  -5  -3 1919.71  108.89
  -5  -4   3 1797.82  112.09
   4   5  -3 1873.11  107.59
   5   4  -3 2030.70  108.09
  -4   5  -3 1948.41  109.69
   4   5   3 2124.09  111.39
  -5  -4  -3 1934.81  109.19
   5  -4   3 1650.83  108.39
   5   5  -3  709.73   44.40
  -5   5  -3  767.12   42.70
   5  -5   3  869.01   45.70
   5   5   3  711.73   45.80
   6   0  -3 2715.13  153.88
   0  -6  -3 2778.42  153.28
   6   0  -3 2923.61  154.08
   0   6   3 2558.64  154.18
  -6   0  -3 2833.52  154.28
   6   0   3 2898.51  154.78
   6   1   3   51.49    7.50
  -6   1  -3   48.30    6.40
  -1   6   3   70.39    7.60
   6  -1  -3   40.90    5.80
  -1  -6  -3   50.69    6.30
   6   1   3   46.50    7.00
   6  -1  -3   48.70    6.10
   6  -1   3   79.19    7.80
   6   1  -3   61.19    6.40
   1  -6  -3   48.20    5.60
   1   6   3   40.60    5.40
  -6  -1  -3   63.39    7.30
   6   1  -3   57.39    6.50
  -6   2  -3  784.52   45.40
   2   6  -3  833.62   47.90
   6  -2  -3  770.52   45.90
  -2  -6  -3  857.61   49.30
   6   2   3  732.93   45.30
  -6   2  -3  773.52   45.20
   6   2   3  825.92   47.40
   2  -6  -3  840.02   44.30
   6  -2   3  884.31   50.19
  -6  -2  -3  854.61   50.09
   2   6   3  772.82   44.80
   6   2  -3  902.01   49.40
   6  -3  -3   10.80    7.60
  -6   3  -3   28.40    5.00
  -3  -6  -3   22.50    5.40
   3   6  -3   31.00    3.60
   6   3   3   18.90    4.40
   6  -3  -3   33.30    6.00
   3  -6  -3   38.30    5.40
   6   3  -3   34.80    5.20
   3   6   3   36.90    5.40
   6  -3   3   33.30    6.20
  -6  -3  -3   30.20    6.00
  -3  -6   3   32.50    6.50
  -6   4  -3  935.71   51.99
   6   4   3  950.00   54.79
   4   6  -3  936.71   51.29
   6  -4  -3  942.01   54.19
   4   6  -3  834.12   49.20
  -4   6   3  966.50   58.69
  -6   4  -3  861.71   53.69
   4   6   3  809.92   55.19
  -4   6  -3  949.31   51.49
  -6  -4  -3  829.02   51.09
   6   4  -3  856.31   49.90
   6   5   3  106.89   13.30
  -5   6   3  107.49   16.40
  -6   5  -3  101.69    8.70
   6  -5  -3   90.29   12.70
   5   6  -3   84.89    7.60
   6   5  -3  103.89    8.30
  -5   6  -3   96.09    8.20
   5   6   3   79.09   12.90
   6  -5   3  105.49   10.80
   6  -6  -3 1594.24   96.59
   6   6   3 1668.33   95.69
   6   6  -3 1626.24   91.79
  -6   6  -3 1645.24   91.19
   0   7   3   52.59    9.90
   0   7   3   42.90    7.50
  -7   0  -3   55.89    8.90
   7   0   3   54.19   12.30
   7   0  -3   58.19    6.80
   7   0  -3   57.29    7.10
   1   7  -3  375.56   23.80
  -1   7   3  431.86   24.60
  -1   7   3  410.56   28.50
   7  -1  -3  401.46   24.90
   1  -7  -3  415.26   23.30
   1   7   3  343.97   28.90
   1   7   3  352.66   24.00
  -1   7  -3  462.05   25.30
  -7  -1  -3  368.46   25.00
   7  -1   3  390.66   25.60
   7   1  -3  397.46   24.50
   7  -2  -3 1172.08   67.69
  -7   2  -3 1146.29   67.09
  -2   7   3 1304.17   74.39
   7   2   3 1230.98   68.99
   2   7  -3 1283.67   69.89
   7  -2   3 1184.08   71.09
   7   2  -3 1245.88   70.19
  -7  -2  -3 1201.68   70.99
   3   7  -3  510.85   28.20
  -7   3  -3  421.96   26.50
  -3   7   3  494.05   34.40
   3   7  -3  431.26   26.40
   7   3   3  438.86   29.10
   7  -3  -3  428.76   27.90
  -3   7  -3  446.86   26.00
   7   3  -3  501.45   28.30
   7  -3   3  392.16   29.20
   7   4   3 1301.67   75.69
   4   7  -3 1091.39   66.09
  -4   7   3 1267.27   75.09
   7  -4  -3 1340.87   74.49
  -7   4  -3 1304.77   71.99
   4   7  -3 1250.37   67.69
   4   7   3 1081.49   75.39
   7   4  -3 1174.98   67.29
  -4   7  -3 1328.47   71.09
  -7   5  -3  440.06   26.50
   7   5   3  460.45   30.80
  -5   7   3  471.15   38.30
   5   7  -3  434.56   26.90
   7  -5  -3  410.26   29.80
   5   7   3  407.56   30.70
   7  -5   3  508.15   30.40
   7   5  -3  433.86   27.60
  -5   7  -3  433.26   25.50
  -7   6  -3    9.50    4.60
   6   7  -3   19.90    5.70
  -6   7   3   25.50   14.60
   7  -6  -3   26.10   11.50
   7   6   3    5.80    9.20
   7   6  -3   26.00    5.70
  -6   7  -3    4.00    3.80
   6   7   3   16.50    9.10
   8   0  -3  999.00   56.09
   0   8  -3  881.61   56.69
   8   0   3  990.70   57.29
   0   8   3  985.60   60.09
  -8   0  -3  973.30   56.19
   1   8  -3 1766.82  103.59
  -8   1  -3 1899.21  106.99
   8  -1  -3 1921.01  107.19
  -1   8   3 1903.01  108.59
  -1   8   3 1931.31  103.99
   8   1   3 1892.01  108.09
   8  -1   3 1864.21  105.79
   8   1  -3 1852.81  104.59
   8   2   3  193.38   17.50
  -8   2  -3  198.88   14.90
   8  -2  -3  195.18   15.60
   2   8  -3  235.28   15.40
  -2   8   3  255.77   22.20
   8  -2   3  201.68   18.10
   8   2  -3  226.98   16.00
   3   8  -3   61.49    8.20
   8   3   3   72.29   11.40
   8  -3  -3   63.09    9.60
  -3   8   3   78.99   14.40
  -8   3  -3   51.49    7.30
  -3   8  -3   60.39    6.80
   8   3  -3   67.89    8.40
  -8  -3  -3   54.09    9.10
   3   8   3   48.80   11.30
  -8   4  -3  223.98   15.90
  -4   8   3  270.97   26.00
   8   4   3  247.28   20.10
   8  -4  -3  206.58   18.10
   4   8  -3  230.88   17.20
   4   8   3  178.48   21.10
   8   4  -3  246.38   17.50
   5   8  -3 1377.76   77.89
  -5   8   3 1378.46   86.29
   8   5   3 1402.46   78.99
   8  -5  -3 1337.87   78.69
   5   8   3 1233.68   79.79
   8   5  -3 1354.86   77.59
   8   6  -3  379.26   24.60
   9   0  -3   43.70    7.60
   0   9  -3   60.29    8.90
   9   0   3   51.89   10.50
  -9   0  -3   64.09    9.80
   0   9   3   46.70   11.90
  -9   1  -3  427.26   29.50
  -1   9   3  362.06   29.20
   9  -1  -3  468.05   29.90
   1   9  -3  352.36   23.20
   9   1   3  494.95   31.60
  -1   9  -3  466.25   27.90
   9  -1   3  355.46   26.20
   9   1  -3  391.66   24.80
  -9  -1  -3  369.36   25.20
  -2   9   3   94.69   15.20
   2   9  -3   85.49    8.80
   9  -2  -3   70.49   11.10
  -9   2  -3   65.39   10.10
   9   2   3   99.39   13.70
   9   2  -3   81.29   10.20
  -9  -2  -3   58.39    9.20
   9  -2   3   80.49   13.70
   2   9   3   45.40   12.30
  -3   9   3 2188.38  128.19
   9  -3  -3 1931.31  114.49
   9   3   3 2060.59  115.69
  -9   3  -3 2044.90  113.99
   9   3  -3 2215.58  123.49
   9  -4   3    7.40   12.20
   9   4  -3   23.60    7.00
   9   5  -3  285.87   21.00
  10   0   3  339.37   27.00
  10  -1   3  508.85   35.40
  10  -2   3   90.89   15.00
  10  -3   3   16.90   11.40
   0   0   4 7613.04  405.16
   0   0   4 7619.04  404.36
   0   0  -4 7116.59  404.86
   0   0   4 7257.67  404.46
   0  -1   4  120.69   11.00
   1   0   4  133.19   10.20
   0   1   4  131.89   10.30
   1   0   4  124.99   10.00
   0   1   4  148.49   11.00
   0   1  -4  132.29   10.20
  -1   0   4  154.38   10.20
   0  -1   4  154.78   11.50
  -1   0   4  121.99   10.30
   1   0  -4  118.89   10.10
   0  -1  -4  145.99   10.90
  -1   0  -4  138.59   10.80
  -1   0   4  150.18   11.60
   0  -1   4  143.79    9.30
   1   0   4  125.59   10.60
   0   1   4  134.19   10.20
   1  -1  -4  245.68   15.60
   1   1   4  249.68   16.00
   1   1  -4  233.58   16.10
  -1   1   4  252.47   15.20
   1   1   4  232.68   16.60
   1  -1   4  249.28   15.70
   1  -1   4  220.08   14.80
  -1   1   4  234.58   20.10
  -1  -1   4  228.98   14.90
  -1   1  -4  254.87   16.00
   1  -1   4  221.38   14.20
  -1  -1   4  202.08   14.50
  -1  -1  -4  199.68   15.80
  -1   1   4  217.98   15.70
   1   1   4  235.78   16.40
   0   2   4  984.10   52.99
  -2   0   4  862.21   52.39
   0   2  -4  981.30   52.79
   0  -2   4  910.01   53.29
   0   2   4 1044.20   53.49
  -2   0   4  894.71   53.59
   0   2   4  980.40   53.29
   2   0   4  928.71   54.29
   2   0  -4  796.72   53.79
  -2   0  -4  894.11   53.39
   0  -2  -4  903.91   52.99
   2   0   4  860.11   52.39
  -2  -1   4 1932.81  112.19
  -2   1  -4 1715.33  112.49
  -1   2   4 2111.69  108.49
   2   1   4 1841.02  113.19
  -1   2   4 2180.18  108.49
   1   2  -4 1697.03  109.09
   2  -1  -4 1966.40  112.69
   2   1   4 2087.79  112.69
   1  -2   4 2151.38  108.49
  -2   1  -4 2017.80  112.09
  -1   2   4 1991.30  108.99
  -1   2  -4 2135.89  112.29
   2  -1   4 1583.44  106.99
   2   1  -4 1825.22  108.79
   1   2   4 1993.00  113.09
  -2   1   4 2053.19  108.39
  -2  -1  -4 1848.32  109.19
   1   2   4 2271.57  113.19
  -1  -2   4 2067.19  110.69
  -2   1   4 1873.81  109.59
   1  -2  -4 2137.39  112.29
   2  -1   4 2029.70  108.49
  -2  -2  -4  272.27   21.20
   2   2   4  429.16   26.20
   2  -2  -4  430.46   25.30
   2   2   4  376.66   25.50
  -2   2   4  262.17   20.30
   2   2  -4  265.17   18.30
  -2   2   4  281.07   19.10
  -2  -2  -4  267.07   19.00
   2   2  -4  276.97   17.30
  -2   2   4  304.47   19.30
   2  -2   4  322.17   18.90
  -2   2  -4  414.86   25.70
   0   3   4  943.81   51.19
  -3   0  -4  841.32   49.90
   0   3   4  901.21   50.39
   3   0  -4  891.41   50.59
   3   0   4  845.52   50.69
   3   0  -4  848.22   49.80
   0   3  -4  910.71   50.29
  -3   0  -4  786.62   50.69
   3  -1  -4 1778.32   95.89
  -1   3   4 1946.11   95.29
   3  -1  -4 1394.26   97.39
   3   1   4 1566.04   95.29
   1   3  -4 1663.03   96.19
  -3   1  -4 1762.12   94.29
  -1  -3  -4 1412.06   95.09
  -1   3   4 1793.02   96.19
  -1   3  -4 1883.61   94.89
   1  -3  -4 1778.22   95.19
  -3   1   4 1588.24   95.49
   1   3   4 1483.45   95.99
   3   1  -4 1711.43   94.99
  -3  -1  -4 1829.72   96.19
   3   1  -4 1752.12   94.39
   1   3   4 1893.61   96.09
  -3  -1  -4 1701.93   95.49
   3  -1   4 1581.74   96.69
  -2   3   4   34.80    6.60
   3   2   4   18.60    5.70
  -2   3   4   27.10    6.90
  -2  -3  -4   15.90    5.80
   3  -2  -4   25.30    5.60
   2   3  -4   25.20    4.70
   3   2   4   22.60    5.00
  -3   2  -4    9.30    4.50
   3  -2  -4   18.20    5.80
  -3  -2   4   12.50    4.20
  -2  -3   4   14.80    3.40
   3  -2   4   28.00    4.60
   2   3   4   14.00    4.70
   3   2  -4   22.50    4.70
   2   3   4   32.60    6.50
  -3   2   4   21.40    6.70
   3   2  -4   21.60    3.70
  -3  -2  -4   29.10    5.40
  -2   3  -4   26.80    5.40
   2  -3  -4   19.80    4.10
   3   3  -4 3596.34  194.88
  -3   3  -4 2134.59  121.19
   3   3  -4 3461.35  193.58
  -3   3   4 3345.77  198.08
  -3  -3  -4 3735.23  195.78
  -3  -3   4 2198.58  119.99
   4   0  -4 1279.87   72.69
   0   4   4 1278.77   73.29
   0   4   4 1370.96   74.39
   4   0  -4 1333.77   72.79
   0   4  -4 1281.37   73.29
  -4   0  -4 1318.87   73.59
  -4   0  -4 1236.68   72.49
   4   0   4 1203.88   72.69
  -1  -4  -4 2095.29  120.39
  -1   4   4 2324.07  120.29
  -1   4   4 2196.08  121.69
   4  -1  -4 1932.51  112.19
   4  -1  -4 1992.40  112.29
   4   1   4 2016.90  111.89
  -4   1  -4 2003.80  111.19
  -4   1  -4 2052.79  112.79
   1   4  -4 2102.19  120.89
   4   1  -4 2153.18  119.99
  -4  -1  -4 1987.20  120.19
   1   4   4 1769.32  112.69
  -1   4  -4 2186.18  111.99
   1   4   4 2105.39  113.39
   4   1  -4 2180.78  119.59
  -4  -1  -4 2228.88  120.99
  -2  -4  -4  468.85   28.60
  -4   2  -4  396.36   26.00
   4  -2  -4  407.26   26.40
  -4   2  -4  412.86   24.00
   4  -2  -4  352.06   26.90
   2   4  -4  458.15   28.10
  -2   4   4  429.56   30.70
   4   2   4  408.46   25.00
  -2   4   4  476.65   29.00
   2   4   4  404.26   25.10
  -2   4  -4  451.85   25.70
   4   2  -4  456.85   27.90
   2  -4  -4  373.46   25.10
   2   4   4  452.75   27.60
  -4  -2  -4  505.55   29.40
   4   2  -4  456.55   27.20
   3   4  -4  250.27   15.00
   3   4  -4  254.67   16.70
   4  -3  -4  243.88   17.10
  -4   3  -4  258.57   15.20
   4  -3  -4  220.78   19.40
   4   3   4  223.18   18.90
   4   3   4  256.47   17.00
  -3  -4  -4  247.88   18.10
  -4  -3  -4  259.57   18.00
   4  -3   4  253.77   15.80
   4   3  -4  252.77   15.60
  -3  -4   4  258.57   16.30
   4   3  -4  241.68   16.60
   3  -4  -4  266.27   17.00
   4   4  -4  709.53   39.50
   4   4   4  558.14   39.20
  -4   4  -4  581.34   34.90
  -4  -4  -4  688.13   41.70
   4   4  -4  693.83   40.80
  -4   4   4  690.73   46.00
   0   5   4   35.20    6.60
   0  -5  -4   41.20    6.00
   5   0   4   28.30    6.10
   5   0  -4   41.70    5.70
   5   0  -4   36.90    6.10
  -5   1  -4   29.00    5.50
   5   1   4   34.80    6.90
  -1  -5  -4   59.09    7.70
   5  -1  -4   28.50    5.70
  -1   5   4   60.89    7.90
   5   1   4   39.00   10.70
  -5   1  -4   36.10    6.90
   5  -1  -4   35.40    6.00
   5  -1   4   45.60    8.00
   5   1  -4   50.09    6.20
   1  -5  -4   27.70    5.60
  -5  -1  -4   60.59    8.80
   1   5   4   32.50    7.10
   5   1  -4   50.99    6.90
   5   2   4 1426.56   81.09
  -5   2  -4 1607.04   86.79
  -2   5   4 1494.55   82.39
   5  -2  -4 1398.36   81.99
  -5   2  -4 1336.87   79.99
  -2  -5  -4 1374.76   82.39
   5  -2  -4 1339.07   81.69
  -2   5   4 1454.45   84.79
  -5  -2  -4 1506.25   82.89
   5   2  -4 1440.06   81.19
  -2   5  -4 1616.74   81.69
   2   5   4 1354.36   81.09
   2   5   4 1453.55   86.19
   5   2  -4 1450.55   81.79
  -5   3  -4  867.71   51.19
   5  -3  -4  842.52   52.49
  -3   5   4  836.72   53.69
   5   3   4  904.01   51.09
   5   3  -4  875.21   49.40
   5   3  -4  838.72   48.40
  -5  -3  -4  839.82   50.29
   3   5   4  884.91   53.49
   5  -3   4  863.51   49.00
  -5   4  -4 1432.66   73.69
  -4   5   4 1399.26   84.29
   5  -4  -4 1295.77   76.09
   4   5  -4 1340.07   76.69
   5   4  -4 1393.56   77.29
   4   5   4 1224.08   75.89
  -4   5  -4 1182.88   73.09
   5   4  -4 1418.76   81.89
   5   5   4   37.90    9.40
  -5   5   4   20.80   11.80
   5   5  -4   24.60    6.40
  -5   5  -4   55.99    8.70
   5   5  -4   39.10    5.40
   0   6   4 3620.64  192.28
   6   0  -4 3534.55  190.08
  -6   0  -4 3360.36  191.98
   0   6  -4 3369.96  190.48
   6   0  -4 3298.17  189.58
  -1   6   4   22.70    7.50
   1   6  -4   25.90    6.70
   6  -1  -4   36.10    6.30
  -6  -1  -4   24.80    6.60
   6   1  -4   28.30    5.50
   1   6   4   33.30    8.60
   6   1  -4   23.00    6.30
   6  -1   4   22.00    6.40
  -1   6  -4   33.50    5.60
  -2   6   4  465.15   31.90
   6  -2  -4  550.34   35.00
  -6   2  -4  550.14   34.40
   2   6  -4  471.15   29.00
   6   2  -4  467.45   29.10
   6   2  -4  474.75   28.50
  -2   6  -4  584.44   33.90
  -6  -2  -4  489.75   30.40
   2   6   4  546.75   36.80
   3   6  -4  190.18   14.10
   6   3   4  127.59   16.10
  -6   3  -4  185.38   14.20
  -3   6   4  197.88   19.60
   6  -3  -4  178.28   15.60
   3   6   4  167.88   17.20
   6   3  -4  179.88   13.00
   6   3  -4  184.78   14.20
   6  -3   4  216.88   15.50
  -6  -3  -4  167.58   15.50
  -6   4  -4  676.23   38.70
   4   6  -4  740.23   42.30
  -4   6   4  742.43   49.00
   6  -4  -4  668.13   41.90
   6   4  -4  684.83   41.10
  -4   6  -4  608.24   38.30
   6   4  -4  694.03   42.10
   4   6   4  595.74   42.20
   6   5   4    7.90    9.70
  -6   5  -4   10.20    5.60
  -5   6   4   26.20   13.60
   5   6  -4    4.80    5.30
   6  -5  -4    1.70    9.00
   6   5  -4    7.00    5.40
  -5   6  -4    1.40    5.00
   5   6   4   -3.10    8.30
   6   5  -4    9.60    3.90
   6   6   4 1377.06   82.69
  -6   6   4 1822.02  113.89
   6   6  -4 1939.31  106.19
   7   0  -4  241.88   17.60
  -7   0  -4  236.48   20.30
   0   7   4  291.87   21.70
   0   7  -4  237.28   18.20
   7  -1  -4  239.88   17.80
  -7   1  -4  236.58   18.20
   1   7  -4  218.48   18.60
  -1   7   4  239.88   20.50
   7   1   4  187.28   19.10
  -7  -1  -4  241.08   18.30
  -1   7  -4  239.08   16.30
   1   7   4  278.17   21.50
   7   1  -4  226.78   16.30
   7  -2  -4 1320.97   78.59
  -2   7   4 1287.27   72.69
  -7   2  -4 1329.77   78.09
   2   7  -4 1204.08   68.89
  -7  -2  -4 1236.48   70.19
   7  -2   4 1040.30   69.49
   2   7   4 1386.96   81.19
  -2   7  -4 1414.56   77.39
   7   2  -4 1271.47   68.79
   7   3   4  966.10   69.49
  -7   3  -4 1287.57   68.29
  -3   7   4 1218.48   73.59
   3   7  -4 1190.98   69.19
   7  -3  -4 1234.48   69.59
   7  -3   4 1279.77   70.99
   3   7   4 1216.08   71.59
   7   3  -4 1171.78   68.69
  -7   4  -4 1018.70   55.69
   7   4   4  819.72   58.19
   4   7  -4 1203.78   66.49
   7  -4  -4 1004.90   58.29
  -4   7   4 1110.99   71.79
  -4   7  -4  949.80   54.89
   4   7   4  941.91   59.99
   7   4  -4 1150.78   65.59
   7  -5  -4  114.09   19.40
   5   7  -4   81.99   11.70
   7   5   4   78.09   13.90
   7   5  -4   93.39   11.30
   5   7   4   55.89   13.50
   6   7  -4  117.59   15.70
   7   6  -4  121.19   13.80
  -8   0  -4  205.98   17.80
   8   0  -4  216.38   16.50
   0   8  -4  211.38   15.80
   8   0   4  158.68   17.90
   0   8   4  223.98   20.70
   1   8  -4  975.30   61.49
   8  -1  -4 1026.10   61.29
  -1   8   4 1118.69   63.59
  -8   1  -4 1043.60   61.19
   1   8   4 1055.59   64.09
   8   1  -4 1086.79   59.79
  -8  -1  -4 1101.29   61.49
   8  -1   4  876.31   61.09
  -1   8  -4 1030.60   59.39
  -8   2  -4  137.39   14.00
   8   2   4   96.29   16.70
   2   8  -4   98.79   11.50
   8  -2  -4  136.29   14.00
  -2   8   4  121.09   17.30
   2   8   4  138.19   18.10
   8  -2   4   88.79   14.80
   8   2  -4  117.19   11.60
  -2   8  -4  110.79   11.40
  -8   3  -4   -7.60    6.10
  -3   8   4   18.60   12.30
   3   8  -4   12.60    8.30
   8  -3  -4    7.20    8.10
   8   3   4    3.80    9.90
   8   3  -4    7.90    5.80
   3   8   4    6.00   12.60
   8   4  -4  132.09   12.30
   9   0  -4   87.59   12.50
   9   0   4   68.09   13.50
  -9   0  -4  102.99   14.90
   9   1   4  389.16   32.00
  -9   1  -4  507.05   30.90
  -9  -1  -4  615.44   38.30
   9   1  -4  609.64   36.60
   9  -1   4  534.65   39.00
   9   2   4   15.50   11.70
   9   2  -4    7.20    7.20
   9   3  -4 1059.39   61.49
   9   4  -4   20.30    9.10
   0   0   5 2561.34  140.39
   0   0  -5 2538.15  141.49
   0   0   5 2537.55  140.79
  -1   0   5   34.20    5.60
   1   0   5   35.20    6.20
   0  -1   5   44.40    5.40
  -1   0   5   42.90    6.80
  -1   0   5   33.00    7.90
   0  -1   5   40.10    5.80
   1   0  -5   43.60    6.20
   0   1   5   41.20    6.70
   1   0   5   38.10    5.80
   0  -1  -5   35.50    6.10
   0   1   5   42.20    7.40
   0   1  -5   35.20    6.10
   0   1   5   40.40    7.00
   1   0   5   33.00    6.70
   0  -1   5   31.20    7.20
  -1   0  -5   47.40    7.30
  -1   1  -5  796.12   45.20
   1  -1   5  731.63   42.00
  -1  -1  -5  748.33   44.60
  -1  -1   5  741.33   46.00
  -1   1   5  804.42   44.80
   1   1   5  756.12   45.10
  -1   1   5  728.53   43.50
   1   1   5  826.22   45.00
  -1  -1   5  789.62   43.60
   1   1  -5  702.13   43.70
   1  -1   5  816.72   42.80
   1  -1  -5  739.63   44.50
  -1   1   5  705.43   43.60
   1   1   5  723.53   44.40
  -1  -1   5  748.73   43.50
   0  -2  -5 1093.69   59.79
   2   0   5  963.30   58.29
  -2   0  -5 1068.39   60.09
   2   0   5 1163.78   58.89
   2   0   5  922.51   59.09
   0   2  -5  981.90   58.49
   0   2   5 1000.80   58.89
   0   2   5 1031.90   59.09
  -2   0   5 1107.99   58.79
   2   0  -5  961.50   58.89
  -2   0   5  995.80   59.09
   1   2  -5 1763.62  103.59
  -2   1  -5 1937.11  105.69
   2   1   5 1748.43  105.69
   2  -1  -5 1765.82  104.59
  -1   2   5 2048.59  104.39
  -1  -2  -5 1837.12  105.59
  -1   2   5 1833.42  103.99
   2   1   5 1750.82  105.29
  -2  -1   5 1858.21  104.09
  -2  -1   5 1755.82  104.29
   2   1   5 2040.70  105.29
  -2   1   5 1767.62  104.19
   2  -1   5 1848.42  102.19
   1   2   5 1922.01  105.19
  -1   2  -5 2038.70  105.29
  -2  -1  -5 1701.83  104.69
   1   2   5 1769.22  104.99
   1  -2  -5 2001.80  105.29
   2   1  -5 1782.72  104.49
  -2   1   5 1912.11  104.79
   2  -1   5 1991.50  102.79
  -2   2  -5  524.05   30.00
   2   2   5  421.36   31.70
  -2  -2   5  446.66   27.50
   2   2   5  509.15   30.10
   2   2  -5  472.35   32.60
  -2   2   5  529.65   32.00
   2  -2  -5  452.55   28.90
  -2   2   5  490.15   31.70
  -3   0  -5   40.00    9.30
   0   3   5   43.30    7.40
  -3   0   5   71.69   11.10
   3   0  -5   45.00    8.30
  -3   0  -5   38.70    7.90
   0  -3  -5   47.10    8.00
   3   0   5   67.19    8.80
  -3   0   5   42.10    9.60
   3   1   5  951.10   48.80
   3  -1  -5  754.52   47.90
  -3  -1   5  809.42   47.60
  -1   3   5  749.82   48.10
  -3  -1   5  818.92   49.40
   3   1   5  678.63   50.99
  -3   1  -5  738.23   48.90
   1   3  -5  782.02   45.70
   1  -3  -5  825.82   48.30
   3   1  -5  695.93   47.70
   3  -1   5  830.12   44.50
   1   3   5  910.01   49.00
  -3   1   5  774.42   47.90
  -1   3  -5  850.41   47.70
   2   3  -5   69.99   12.60
  -3  -2   5   69.79   11.30
   3   2   5   50.09   12.30
   3   2   5   86.79   10.70
  -3   2  -5   70.79   11.10
  -3   2   5   67.49   13.00
  -3  -2  -5   61.69    9.90
   3   2  -5   70.89   11.20
   3   3  -5 3211.78  164.48
  -3   3   5 3108.89  166.18
  -3  -3  -5 2484.35  163.78
  -3  -3   5 1976.40  112.19
   0   4   5 1088.99   62.99
   4   0   5 1159.98   62.29
   0   4  -5 1090.39   63.09
   4   0  -5 1051.19   62.89
   4   0  -5  989.40   64.29
   4   1   5 1248.38   67.89
   4  -1  -5 1058.19   68.69
  -1   4   5 1039.90   64.09
   4  -1   5 1143.69   62.89
   4   1  -5 1066.49   64.59
   4   1  -5 1129.69   63.79
  -1   4  -5 1152.28   66.49
   1   4   5 1211.98   68.29
  -4   1   5 1110.99   66.49
  -2   4   5  181.38   16.30
  -2   4  -5  273.77   18.80
   2   4   5  261.77   20.40
  -4  -2  -5  172.08   17.20
   4   2  -5  205.08   14.50
   4   2  -5  187.58   15.90
  -4   3  -5   17.80    8.40
  -3   4   5   10.60    8.30
   4   3   5   30.10    8.70
   3   4   5   35.10    8.40
   4   3  -5    8.50    6.30
  -4   3   5   14.90   11.20
   4   3  -5   18.50    4.90
  -3   4  -5   32.80    8.10
  -4   4  -5  118.39   14.20
   4   4  -5  208.68   17.20
  -4   4   5  183.18   22.40
   0   5  -5   83.09    9.30
   5   0  -5   67.29   10.40
  -5   0  -5   56.29   10.40
   0   5   5   77.59   11.40
   5   0   5   70.49   10.60
   5  -1  -5  509.35   32.50
   1   5  -5  462.25   30.50
  -1   5   5  449.46   30.60
  -5   1  -5  398.36   31.80
   5   1   5  503.15   33.60
   5   1  -5  376.66   29.80
   1   5   5  496.75   31.90
   5  -1   5  516.75   29.50
  -1   5  -5  481.65   29.40
  -5  -1  -5  458.55   31.90
   5   1  -5  492.75   29.20
   5  -2  -5 1364.46   87.79
  -2   5   5 1326.27   81.19
   5   2   5 1509.75   87.09
   2   5  -5 1318.57   81.99
   5   2  -5 1500.15   79.49
  -5  -2  -5 1442.36   82.09
   2   5   5 1552.24   87.69
   5   2  -5 1396.86   80.09
  -2   5  -5 1612.44   85.99
  -3   5   5  286.67   23.90
   3   5  -5  269.57   21.00
   5   3   5  271.97   22.40
   3   5   5  296.47   22.50
  -3   5  -5  260.97   20.30
   5   3  -5  279.87   18.90
  -5   3   5  280.07   27.80
  -5   4  -5  832.02   50.99
   4   5  -5 1246.18   71.39
  -4   5   5 1171.08   75.39
   5   4  -5 1248.48   71.29
  -5   4   5 1251.27   78.09
  -5   5  -5  144.29   19.80
   5   5   5  252.27   21.50
   5   5  -5  275.57   20.40
  -5   5   5  236.48   28.80
   6   0  -5 1978.20  112.29
   0   6   5 1993.20  113.69
   0   6  -5 1989.90  111.49
  -6   0  -5 1991.50  113.99
   1   6  -5   46.40    9.80
  -6   1  -5   50.09   11.00
  -1   6   5   49.20    9.60
   6   1   5   40.90    9.10
   6  -1  -5   44.10    8.90
  -1   6  -5   43.40    6.60
   1   6   5   41.40    9.40
   6   1  -5   53.79    8.60
   6  -1   5   47.80    9.10
  -2   6   5  852.81   51.49
  -6   2  -5  799.02   52.49
   6   2   5  830.02   52.19
   2   6  -5  764.82   51.79
   6  -2  -5  874.81   53.29
   6   2  -5  849.72   48.40
   2   6   5  894.21   53.09
  -2   6  -5  863.91   50.19
   3   6  -5   62.89   10.80
  -6   3  -5   71.09   12.30
   6  -3  -5   65.69   13.20
  -3   6   5   57.79   11.30
   6   3   5   71.19   12.20
  -3   6  -5   70.49   10.00
   3   6   5   65.59   11.80
  -6   4  -5  596.44   41.90
   6   4   5  675.23   43.20
   4   6  -5  680.03   41.30
  -4   6   5  617.04   45.20
   4   6   5  678.83   43.60
  -6   4   5  685.43   49.60
   5   6  -5   25.60    8.30
   6   5  -5   30.00    7.60
   6   6  -5 1446.56   89.39
  -7   0  -5   -1.00   10.30
   7   0   5   14.30    8.80
   7   0  -5   13.60    7.60
   0   7  -5    7.50    5.50
   0   7   5   15.60    8.40
  -1   7   5  194.58   19.40
   7   1   5  228.98   21.30
   1   7  -5  193.78   18.00
  -7   1  -5  253.47   22.10
   7  -1  -5  244.58   20.20
   7   1  -5  232.88   17.50
   1   7   5  200.98   20.30
  -7  -1  -5  229.68   21.60
   7   2   5 1089.79   64.49
  -7   2  -5 1069.79   64.39
   7  -2  -5 1046.30   64.29
  -2   7   5 1111.19   65.59
   2   7  -5  931.71   64.39
   7   2  -5 1080.19   60.69
   2   7   5 1052.99   64.99
   7  -3  -5  380.96   30.60
   7   3   5  335.77   28.10
   8   0  -5  218.78   19.50
  -8   0  -5  197.78   22.50
   8   1   5  829.22   51.59
  -8   1  -5  785.22   51.99
   8  -1  -5  840.12   51.69
   8   1  -5  737.33   45.20
   8   2   5  133.79   17.90
   8   2  -5  163.68   16.70
   0   0   6 2486.35  135.29
   0   0  -6 2392.06  136.19
   0   1   6  217.28   16.40
  -1   0   6  220.48   15.90
   0   1  -6  232.58   17.30
   1   0   6  234.28   16.30
   1   0  -6  208.98   16.50
  -1   0  -6  260.07   18.20
   1   1   6   69.79    9.60
  -1  -1  -6   57.39    8.80
  -1   1   6   51.49    9.00
   1   1  -6   60.49    8.50
  -2   0   6  286.97   20.70
  -2   0  -6  337.27   23.30
   0   2   6  322.27   23.10
   2   1   6 1918.21  102.39
   1   2  -6 1657.03   94.79
   1   2   6 1831.02  104.29
   2   1  -6 1568.24   94.09
  -2  -1  -6 1776.72   95.79
  -2   1   6 1657.33   94.19
  -1   2  -6 1696.13  103.79
   2   2  -6  216.98   17.20
  -2   2   6  208.68   17.70
  -2   2  -6  278.47   20.60
   0   3  -6  381.46   25.70
  -3   0  -6  454.15   29.10
   0   3   6  393.46   26.80
  -3   0   6  394.06   27.10
   3   1   6  445.36   27.00
  -1   3   6  405.16   25.70
  -3   1  -6  423.96   28.90
   1   3  -6  410.36   25.30
  -1   3  -6  375.36   26.40
   1   3   6  400.56   27.30
  -3  -1  -6  302.67   27.50
  -2   3   6  104.29   13.30
  -3   2  -6  112.79   14.50
   2   3  -6   91.49   11.30
   3   2   6  122.59   14.10
   2   3   6   92.19   13.20
  -2   3  -6  118.79   13.00
  -3   2   6   92.19   14.30
   3   2  -6   77.59   11.60
   3   3   6 1474.95   86.89
  -3   3   6 1276.27   74.59
   3   3  -6 1257.47   75.69
  -3   3  -6 1547.25   87.39
   0   4   6  187.58   16.20
  -4   0  -6  137.29   18.20
   0   4  -6  168.38   14.00
   1   4  -6 1306.87   75.59
  -1   4   6 1251.87   76.09
  -4   1  -6 1282.97   77.19
   1   4   6 1331.77   75.99
  -4   1   6 1394.26   79.49
  -1   4  -6 1290.87   74.59
  -2   4   6  301.47   22.90
  -4   2  -6  257.57   23.60
   4   2   6  301.07   21.70
   2   4  -6  256.37   22.10
  -4   2   6  304.17   26.70
   2   4   6  269.57   21.70
  -2   4  -6  285.47   21.00
  -3   4   6  195.58   19.40
  -4   3  -6  158.18   19.30
   4   3   6  187.78   18.50
   3   4  -6  142.99   22.20
  -3   4  -6  184.78   18.10
  -4   3   6  171.18   21.80
   3   4   6  209.68   18.90
  -4   4   6   89.79   16.10
   4   4   6  105.29   16.70
   4   4  -6  139.39   20.50
   0   5   6    2.90    7.60
  -5   0  -6    8.90   11.20
  -5   0   6    2.60   16.20
   0   5  -6    3.40    5.00
  -5   1  -6   76.09   15.40
  -1   5   6  107.39   14.70
   1   5  -6  114.39   13.60
  -5   1   6  142.89   21.50
  -1   5  -6  108.29   12.20
   1   5   6  130.59   15.20
  -2   5   6 1265.67   76.59
   5   2   6 1520.55   82.99
   2   5  -6 1249.28   76.19
   2   5   6 1319.57   82.89
  -5   2   6 1406.06   82.19
  -2   5  -6 1439.96   83.89
   5   3   6  556.54   36.80
  -3   5   6  456.25   33.90
   3   5  -6  488.75   37.50
   3   5   6  533.85   36.60
  -5   3   6  512.95   40.50
   4   5  -6  868.21   58.19
   5   4   6  957.30   58.79
  -6   1  -6   52.39   16.00
  -6   1   6  153.28   23.90
  -6   2   6  225.98   34.00
   6   3   6  317.07   26.40
  -2   2  -7  190.48   19.80
   0   3  -7   87.29   13.20
  -1   3  -7  337.57   24.40
  -3   2  -7   16.00   11.70
   0   4   7  676.03   43.40
  -1   4   7  671.33   43.70
   1   4   7  540.85   39.70
   0   0   0    0.00    0.00

_computing_structure_solution     'SHELXT 2014/5 (Sheldrick, 2014)'
;
_shelx_hkl_checksum              15497
_olex2_submission_special_instructions 'No special instructions were received'
loop_
_space_group_symop_operation_xyz
'x, y, z'
'y, -x, -z'
'-x, -y, z'
'-y, x, -z'
'x+1/2, -y+1/2, -z'
'-x+1/2, y+1/2, -z'
'-y+1/2, -x+1/2, z'
'y+1/2, x+1/2, z'
loop_
_atom_site_label
_atom_site_type_symbol
_atom_site_fract_x
_atom_site_fract_y
_atom_site_fract_z
_atom_site_U_iso_or_equiv
_atom_site_adp_type
_atom_site_occupancy
_atom_site_site_symmetry_order
_atom_site_calc_flag
_atom_site_refinement_flags_posn
_atom_site_refinement_flags_adp
_atom_site_refinement_flags_occupancy
Eu1 Eu 0.66495(5) 0.16495(5) 0.50842(11) 0.0099(3) Uani 1 2 d S T P
Mg1 Mg 1.0000 0.0000 0.0000 0.0091(10) Uani 1 4 d S T P
Si1 Si 0.8618(3) 0.3618(3) -0.0540(7) 0.0077(6) Uani 1 2 d S T P
O1 O 0.5000 0.0000 0.157(2) 0.010(2) Uani 1 4 d S T P
O2 O 0.8608(8) 0.3608(8) 0.2547(19) 0.0122(17) Uani 1 2 d S T P
O3 O 0.9209(8) 0.1902(9) -0.1951(12) 0.0120(13) Uani 1 1 d . . .
loop_
_atom_site_aniso_label
_atom_site_aniso_U_11
_atom_site_aniso_U_22
_atom_site_aniso_U_33
_atom_site_aniso_U_23
_atom_site_aniso_U_13
_atom_site_aniso_U_12
Eu1 0.0102(4) 0.0102(4) 0.0093(4) -0.00110(14) -0.00110(14) -0.00167(15)
Mg1 0.0097(14) 0.0097(14) 0.008(2) 0.000 0.000 0.000
Si1 0.0076(8) 0.0076(8) 0.0081(14) 0.0005(9) 0.0005(9) -0.0013(11)
O1 0.009(3) 0.009(3) 0.012(5) 0.000 0.000 0.000(5)
O2 0.013(3) 0.013(3) 0.010(4) 0.001(2) 0.001(2) -0.006(3)
O3 0.011(3) 0.008(3) 0.017(3) 0.000(2) 0.000(2) -0.001(2)
loop_
_atom_type_symbol
_atom_type_description
_atom_type_scat_dispersion_real
_atom_type_scat_dispersion_imag
_atom_type_scat_source
Eu Eu -0.1578 3.6682 'International Tables Vol C Tables 4.2.6.8 and 6.1.1.4'
Mg Mg 0.0486 0.0363 'International Tables Vol C Tables 4.2.6.8 and 6.1.1.4'
O O 0.0106 0.0060 'International Tables Vol C Tables 4.2.6.8 and 6.1.1.4'
Si Si 0.0817 0.0704 'International Tables Vol C Tables 4.2.6.8 and 6.1.1.4'
loop_
_geom_angle_atom_site_label_1
_geom_angle_atom_site_label_2
_geom_angle_atom_site_label_3
_geom_angle
_geom_angle_site_symmetry_1
_geom_angle_site_symmetry_3
Si1 Eu1 Si1 151.82(5) 1_556 4_645
Si1 Eu1 Si1 77.71(4) 2_565 .
Si1 Eu1 Si1 77.71(4) 4_645 .
Si1 Eu1 Si1 151.82(5) 1_556 2_565
Si1 Eu1 Si1 97.80(9) 1_556 .
Si1 Eu1 Si1 55.14(11) 4_645 2_565
O1 Eu1 Si1 178.8(2) . 1_556
O1 Eu1 Si1 83.42(18) . .
O1 Eu1 Si1 28.45(7) . 2_565
O1 Eu1 Si1 28.45(7) . 4_645
O1 Eu1 O2 79.7(2) . 4_646
O1 Eu1 O2 79.7(2) . 2_566
O1 Eu1 O3 56.77(15) . 4_645
O1 Eu1 O3 56.77(15) . 5_455
O2 Eu1 Si1 97.1(2) . 2_565
O2 Eu1 Si1 75.9(2) . 1_556
O2 Eu1 Si1 101.49(15) 4_646 2_565
O2 Eu1 Si1 99.35(18) 2_566 1_556
O2 Eu1 Si1 99.35(18) 4_646 1_556
O2 Eu1 Si1 97.1(2) . 4_645
O2 Eu1 Si1 70.4(2) 2_566 2_565
O2 Eu1 Si1 140.5(2) 2_566 .
O2 Eu1 Si1 140.5(2) 4_646 .
O2 Eu1 Si1 70.4(2) 4_646 4_645
O2 Eu1 Si1 101.49(15) 2_566 4_645
O2 Eu1 Si1 21.9(2) . .
O2 Eu1 O1 105.3(3) . .
O2 Eu1 O2 144.69(17) . 2_566
O2 Eu1 O2 70.4(4) 4_646 2_566
O2 Eu1 O2 144.69(17) . 4_646
O2 Eu1 O3 70.5(2) 2_566 5_455
O2 Eu1 O3 83.1(2) . 5_455
O2 Eu1 O3 125.2(2) 2_566 4_645
O2 Eu1 O3 83.1(2) . 4_645
O2 Eu1 O3 70.5(2) 4_646 4_645
O2 Eu1 O3 125.2(2) 4_646 5_455
O3 Eu1 Si1 28.54(15) 4_645 4_645
O3 Eu1 Si1 28.54(15) 5_455 2_565
O3 Eu1 Si1 121.36(17) 1_556 4_645
O3 Eu1 Si1 81.52(15) 5_455 4_645
O3 Eu1 Si1 95.41(15) 1_556 .
O3 Eu1 Si1 121.36(17) 8_546 2_565
O3 Eu1 Si1 123.62(14) 4_645 1_556
O3 Eu1 Si1 172.70(15) 1_556 2_565
O3 Eu1 Si1 95.41(15) 8_546 .
O3 Eu1 Si1 30.65(16) 1_556 1_556
O3 Eu1 Si1 30.65(16) 8_546 1_556
O3 Eu1 Si1 123.62(14) 5_455 1_556
O3 Eu1 Si1 70.33(15) 5_455 .
O3 Eu1 Si1 172.70(15) 8_546 4_645
O3 Eu1 Si1 81.52(15) 4_645 2_565
O3 Eu1 Si1 70.33(15) 4_645 .
O3 Eu1 O1 149.38(16) 1_556 .
O3 Eu1 O1 149.38(16) 8_546 .
O3 Eu1 O2 76.6(2) 1_556 .
O3 Eu1 O2 82.2(2) 8_546 2_566
O3 Eu1 O2 76.6(2) 8_546 .
O3 Eu1 O2 116.8(2) 8_546 4_646
O3 Eu1 O2 82.2(2) 1_556 4_646
O3 Eu1 O2 116.8(2) 1_556 2_566
O3 Eu1 O3 104.3(3) 4_645 5_455
O3 Eu1 O3 93.9(3) 8_546 5_455
O3 Eu1 O3 150.77(7) 1_556 5_455
O3 Eu1 O3 150.77(7) 8_546 4_645
O3 Eu1 O3 93.9(3) 1_556 4_645
O3 Eu1 O3 61.2(3) 8_546 1_556
Eu1 Mg1 Eu1 114.717(8) 4_646 3_754
Eu1 Mg1 Eu1 99.423(14) 1_554 3_754
Eu1 Mg1 Eu1 114.717(8) 1_554 4_646
Eu1 Mg1 Eu1 114.717(8) 2_666 3_754
Eu1 Mg1 Eu1 99.423(14) 2_666 4_646
Eu1 Mg1 Eu1 114.717(8) 2_666 1_554
Si1 Mg1 Eu1 125.09(7) 2_665 1_554
Si1 Mg1 Eu1 125.09(7) . 4_646
Si1 Mg1 Eu1 52.09(6) 4_645 4_646
Si1 Mg1 Eu1 62.66(6) 2_665 3_754
Si1 Mg1 Eu1 119.92(7) 2_665 4_646
Si1 Mg1 Eu1 125.09(7) 4_645 3_754
Si1 Mg1 Eu1 119.92(7) . 3_754
Si1 Mg1 Eu1 62.66(6) 3_755 4_646
Si1 Mg1 Eu1 125.09(7) 3_755 2_666
Si1 Mg1 Eu1 62.66(6) 4_645 1_554
Si1 Mg1 Eu1 119.92(7) 3_755 1_554
Si1 Mg1 Eu1 52.09(6) . 1_554
Si1 Mg1 Eu1 52.09(6) 3_755 3_754
Si1 Mg1 Eu1 52.09(6) 2_665 2_666
Si1 Mg1 Eu1 119.92(7) 4_645 2_666
Si1 Mg1 Eu1 62.66(6) . 2_666
Si1 Mg1 Si1 169.74(14) 2_665 4_645
Si1 Mg1 Si1 90.458(13) . 4_645
Si1 Mg1 Si1 90.458(13) 4_645 3_755
Si1 Mg1 Si1 90.458(12) . 2_665
Si1 Mg1 Si1 90.458(13) 2_665 3_755
Si1 Mg1 Si1 169.74(14) . 3_755
O3 Mg1 Eu1 34.23(19) 2_665 2_666
O3 Mg1 Eu1 139.96(19) 2_665 1_554
O3 Mg1 Eu1 34.23(19) 4_645 4_646
O3 Mg1 Eu1 139.96(19) 3_755 2_666
O3 Mg1 Eu1 98.82(19) 2_665 4_646
O3 Mg1 Eu1 84.7(2) . 2_666
O3 Mg1 Eu1 84.7(2) 4_645 1_554
O3 Mg1 Eu1 34.23(19) . 1_554
O3 Mg1 Eu1 139.97(19) . 4_646
O3 Mg1 Eu1 98.82(19) . 3_754
O3 Mg1 Eu1 84.7(2) 3_755 4_646
O3 Mg1 Eu1 84.7(2) 2_665 3_754
O3 Mg1 Eu1 98.82(19) 3_755 1_554
O3 Mg1 Eu1 34.23(19) 3_755 3_754
O3 Mg1 Eu1 139.96(19) 4_645 3_754
O3 Mg1 Eu1 98.82(19) 4_645 2_666
O3 Mg1 Si1 143.5(2) . 3_755
O3 Mg1 Si1 94.1(2) . 2_665
O3 Mg1 Si1 91.2(2) . 4_645
O3 Mg1 Si1 94.1(2) 2_665 3_755
O3 Mg1 Si1 91.2(2) 3_755 2_665
O3 Mg1 Si1 26.3(2) 3_755 3_755
O3 Mg1 Si1 26.3(2) 4_645 4_645
O3 Mg1 Si1 91.2(2) 4_645 3_755
O3 Mg1 Si1 26.3(2) 2_665 2_665
O3 Mg1 Si1 26.3(2) . .
O3 Mg1 Si1 143.5(2) 4_645 2_665
O3 Mg1 Si1 91.2(2) 2_665 .
O3 Mg1 Si1 94.1(2) 3_755 4_645
O3 Mg1 Si1 143.5(2) 3_755 .
O3 Mg1 Si1 94.1(2) 4_645 .
O3 Mg1 Si1 143.5(2) 2_665 4_645
O3 Mg1 O3 105.74(18) 3_755 4_645
O3 Mg1 O3 105.74(18) . 2_665
O3 Mg1 O3 117.2(4) . 3_755
O3 Mg1 O3 105.74(18) . 4_645
O3 Mg1 O3 117.2(4) 2_665 4_645
O3 Mg1 O3 105.74(18) 2_665 3_755
Eu1 Si1 Eu1 146.27(4) 2_665 .
Eu1 Si1 Eu1 146.27(4) 4_655 .
Eu1 Si1 Eu1 97.80(9) 1_554 .
Eu1 Si1 Eu1 80.34(8) 1_554 2_665
Eu1 Si1 Eu1 67.08(8) 4_655 2_665
Eu1 Si1 Eu1 80.34(8) 1_554 4_655
Mg1 Si1 Eu1 75.40(4) 5_455 4_655
Mg1 Si1 Eu1 77.16(6) 5_455 1_554
Mg1 Si1 Eu1 75.40(4) . 2_665
Mg1 Si1 Eu1 138.81(11) . 4_655
Mg1 Si1 Eu1 138.81(11) 5_455 2_665
Mg1 Si1 Eu1 71.41(7) 5_455 .
Mg1 Si1 Eu1 71.41(7) . .
Mg1 Si1 Eu1 77.16(6) . 1_554
Mg1 Si1 Mg1 130.78(12) 5_455 .
O1 Si1 Eu1 146.3(4) 2_665 .
O1 Si1 Eu1 48.6(3) 2_665 2_665
O1 Si1 Eu1 115.9(4) 2_665 1_554
O1 Si1 Eu1 48.6(3) 2_665 4_655
O1 Si1 Mg1 114.45(7) 2_665 5_455
O1 Si1 Mg1 114.45(7) 2_665 .
O2 Si1 Eu1 134.9(4) . 1_554
O2 Si1 Eu1 134.1(3) . 4_655
O2 Si1 Eu1 37.1(4) . .
O2 Si1 Eu1 134.1(3) . 2_665
O2 Si1 Mg1 84.70(17) . .
O2 Si1 Mg1 84.70(17) . 5_455
O2 Si1 O1 109.2(5) . 2_665
O2 Si1 O3 116.4(3) . 8_545
O2 Si1 O3 116.4(3) . .
O3 Si1 Eu1 108.4(3) 8_545 2_665
O3 Si1 Eu1 55.1(2) 8_545 4_655
O3 Si1 Eu1 55.1(2) . 2_665
O3 Si1 Eu1 108.4(3) . 4_655
O3 Si1 Eu1 53.5(3) . 1_554
O3 Si1 Eu1 53.5(3) 8_545 1_554
O3 Si1 Eu1 96.7(3) 8_545 .
O3 Si1 Eu1 96.7(3) . .
O3 Si1 Mg1 127.7(3) . 5_455
O3 Si1 Mg1 31.8(2) . .
O3 Si1 Mg1 127.7(3) 8_545 .
O3 Si1 Mg1 31.8(2) 8_545 5_455
O3 Si1 O1 103.1(3) 8_545 2_665
O3 Si1 O1 103.1(3) . 2_665
O3 Si1 O3 106.9(5) 8_545 .
Eu1 O1 Eu1 91.7(4) 3_655 .
Si1 O1 Eu1 102.9(2) 4_645 3_655
Si1 O1 Eu1 102.9(2) 4_645 .
Si1 O1 Eu1 102.9(2) 2_565 3_655
Si1 O1 Eu1 102.9(2) 2_565 .
Si1 O1 Si1 142.5(8) 4_645 2_565
Eu1 O2 Eu1 105.6(3) . 2_666
Eu1 O2 Eu1 105.6(3) . 4_656
Eu1 O2 Eu1 86.3(3) 4_656 2_666
Si1 O2 Eu1 116.3(4) . 4_656
Si1 O2 Eu1 120.9(5) . .
Si1 O2 Eu1 116.3(4) . 2_666
Eu1 O3 Eu1 104.3(2) 1_554 2_665
Mg1 O3 Eu1 113.6(3) . 2_665
Mg1 O3 Eu1 120.7(3) . 1_554
Si1 O3 Eu1 96.4(3) . 2_665
Si1 O3 Eu1 95.8(3) . 1_554
Si1 O3 Mg1 121.9(4) . .
loop_
_geom_bond_atom_site_label_1
_geom_bond_atom_site_label_2
_geom_bond_distance
_geom_bond_site_symmetry_2
Eu1 Si1 3.181(3) 1_556
Eu1 Si1 3.669(4) .
Eu1 Si1 3.390(3) 2_565
Eu1 Si1 3.390(3) 4_645
Eu1 O1 2.610(8) .
Eu1 O2 2.740(7) 4_646
Eu1 O2 2.740(7) 2_566
Eu1 O2 2.583(10) .
Eu1 O3 2.572(7) 8_546
Eu1 O3 2.797(6) 5_455
Eu1 O3 2.572(7) 1_556
Eu1 O3 2.797(6) 4_645
Mg1 Eu1 3.9316(4) 1_554
Mg1 Eu1 3.9316(4) 2_666
Mg1 Eu1 3.9316(4) 3_754
Mg1 Eu1 3.9316(4) 4_646
Mg1 Si1 3.1228(15) 4_645
Mg1 Si1 3.1228(15) .
Mg1 Si1 3.1228(15) 2_665
Mg1 Si1 3.1228(15) 3_755
Mg1 O3 1.938(7) 4_645
Mg1 O3 1.938(7) 3_755
Mg1 O3 1.938(7) .
Mg1 O3 1.938(7) 2_665
Si1 Eu1 3.390(3) 4_655
Si1 Eu1 3.390(3) 2_665
Si1 Eu1 3.181(3) 1_554
Si1 Mg1 3.1228(15) 5_455
Si1 O1 1.657(5) 2_665
Si1 O2 1.596(11) .
Si1 O3 1.630(7) .
Si1 O3 1.630(7) 8_545
O1 Eu1 2.610(8) 3_655
O1 Si1 1.657(5) 2_565
O1 Si1 1.657(5) 4_645
O2 Eu1 2.740(7) 4_656
O2 Eu1 2.740(7) 2_666
O3 Eu1 2.572(7) 1_554
O3 Eu1 2.797(6) 2_665
