#------------------------------------------------------------------------------
#$Date: 2017-10-14 22:27:35 +0300 (Sat, 14 Oct 2017) $
#$Revision: 202017 $
#$URL: file:///home/coder/svn-repositories/cod/cif/7/10/24/7102430.cif $
#------------------------------------------------------------------------------
#
# This file is available in the Crystallography Open Database (COD),
# http://www.crystallography.net/
#
# All data on this site have been placed in the public domain by the
# contributors.
#
data_7102430
loop_
_publ_author_name
'Hayward, M A'
_publ_section_title
;
 Selective deintercalation of apex over face-shared oxide ions in the
 topotactic reduction of Sr7Mn4O15 to Sr7Mn4O12.
;
_journal_issue                   2
_journal_name_full
'Chemical communications (Cambridge, England)'
_journal_page_first              170
_journal_page_last               171
_journal_paper_doi               10.1039/b312792c
_journal_year                    2004
_chemical_formula_sum            'O Sr'
_chemical_formula_weight         103.62
_chemical_name_systematic        ' ?'
_space_group_IT_number           225
_symmetry_cell_setting           cubic
_symmetry_space_group_name_Hall  '-F 4 2 3'
_symmetry_space_group_name_H-M   'F m -3 m'
_cell_angle_alpha                90.0
_cell_angle_beta                 90.0
_cell_angle_gamma                90.0
_cell_formula_units_Z            4
_cell_length_a                   5.1432(12)
_cell_length_b                   5.1432
_cell_length_c                   5.1432
_cell_volume                     136.0498
_pd_block_id                     2003-10-17T10:30|RESTART-2P-2_phase2|||
_pd_phase_name                   SrO
_cod_data_source_file            b312792c.txt
_cod_data_source_block           RESTART-2P-2_phase_2
_cod_depositor_comments
;
The following automatic conversions were performed:
'_geom_bond_publ_flag' value 'N' changed to 'n' according to
'/home/saulius/struct/CIF-dictionaries/cif_core.dic' dictionary named
'cif_core.dic' version 2.4.1 from 2010-06-29 (24
times).

'_geom_angle_publ_flag' value 'N' changed to 'n' according to
'/home/saulius/struct/CIF-dictionaries/cif_core.dic' dictionary named
'cif_core.dic' version 2.4.1 from 2010-06-29 (168 times).

Automatic conversion script
Id: cif_fix_enum 1527 2010-12-29 10:47:43Z saulius 
;
_cod_database_code               7102430
loop_
_symmetry_equiv_pos_site_id
_symmetry_equiv_pos_as_xyz
1 +x,+y,+z
2 +z,+x,+y
3 +y,+z,+x
4 +x,+y,-z
5 -z,+x,+y
6 +y,-z,+x
7 -z,+x,-y
8 -y,-z,+x
9 +y,-z,-x
10 -x,+y,-z
11 -z,-x,+y
12 +x,-y,-z
13 +y,+x,+z
14 +z,+y,+x
15 +x,+z,+y
16 +y,+x,-z
17 -z,+y,+x
18 +x,-z,+y
19 -z,+y,-x
20 -x,-z,+y
21 +x,-z,-y
22 -y,+x,-z
23 -z,-y,+x
24 +y,-x,-z
-1 -x,-y,-z
-2 -z,-x,-y
-3 -y,-z,-x
-4 -x,-y,+z
-5 +z,-x,-y
-6 -y,+z,-x
-7 +z,-x,+y
-8 +y,+z,-x
-9 -y,+z,+x
-10 +x,-y,+z
-11 +z,+x,-y
-12 -x,+y,+z
-13 -y,-x,-z
-14 -z,-y,-x
-15 -x,-z,-y
-16 -y,-x,+z
-17 +z,-y,-x
-18 -x,+z,-y
-19 +z,-y,+x
-20 +x,+z,-y
-21 -x,+z,+y
-22 +y,-x,+z
-23 +z,+y,-x
-24 -y,+x,+z
101 +x,+y+1/2,+z+1/2
102 +z,+x+1/2,+y+1/2
103 +y,+z+1/2,+x+1/2
104 +x,+y+1/2,-z+1/2
105 -z,+x+1/2,+y+1/2
106 +y,-z+1/2,+x+1/2
107 -z,+x+1/2,-y+1/2
108 -y,-z+1/2,+x+1/2
109 +y,-z+1/2,-x+1/2
110 -x,+y+1/2,-z+1/2
111 -z,-x+1/2,+y+1/2
112 +x,-y+1/2,-z+1/2
113 +y,+x+1/2,+z+1/2
114 +z,+y+1/2,+x+1/2
115 +x,+z+1/2,+y+1/2
116 +y,+x+1/2,-z+1/2
117 -z,+y+1/2,+x+1/2
118 +x,-z+1/2,+y+1/2
119 -z,+y+1/2,-x+1/2
120 -x,-z+1/2,+y+1/2
121 +x,-z+1/2,-y+1/2
122 -y,+x+1/2,-z+1/2
123 -z,-y+1/2,+x+1/2
124 +y,-x+1/2,-z+1/2
-101 -x,-y+1/2,-z+1/2
-102 -z,-x+1/2,-y+1/2
-103 -y,-z+1/2,-x+1/2
-104 -x,-y+1/2,+z+1/2
-105 +z,-x+1/2,-y+1/2
-106 -y,+z+1/2,-x+1/2
-107 +z,-x+1/2,+y+1/2
-108 +y,+z+1/2,-x+1/2
-109 -y,+z+1/2,+x+1/2
-110 +x,-y+1/2,+z+1/2
-111 +z,+x+1/2,-y+1/2
-112 -x,+y+1/2,+z+1/2
-113 -y,-x+1/2,-z+1/2
-114 -z,-y+1/2,-x+1/2
-115 -x,-z+1/2,-y+1/2
-116 -y,-x+1/2,+z+1/2
-117 +z,-y+1/2,-x+1/2
-118 -x,+z+1/2,-y+1/2
-119 +z,-y+1/2,+x+1/2
-120 +x,+z+1/2,-y+1/2
-121 -x,+z+1/2,+y+1/2
-122 +y,-x+1/2,+z+1/2
-123 +z,+y+1/2,-x+1/2
-124 -y,+x+1/2,+z+1/2
201 +x+1/2,+y,+z+1/2
202 +z+1/2,+x,+y+1/2
203 +y+1/2,+z,+x+1/2
204 +x+1/2,+y,-z+1/2
205 -z+1/2,+x,+y+1/2
206 +y+1/2,-z,+x+1/2
207 -z+1/2,+x,-y+1/2
208 -y+1/2,-z,+x+1/2
209 +y+1/2,-z,-x+1/2
210 -x+1/2,+y,-z+1/2
211 -z+1/2,-x,+y+1/2
212 +x+1/2,-y,-z+1/2
213 +y+1/2,+x,+z+1/2
214 +z+1/2,+y,+x+1/2
215 +x+1/2,+z,+y+1/2
216 +y+1/2,+x,-z+1/2
217 -z+1/2,+y,+x+1/2
218 +x+1/2,-z,+y+1/2
219 -z+1/2,+y,-x+1/2
220 -x+1/2,-z,+y+1/2
221 +x+1/2,-z,-y+1/2
222 -y+1/2,+x,-z+1/2
223 -z+1/2,-y,+x+1/2
224 +y+1/2,-x,-z+1/2
-201 -x+1/2,-y,-z+1/2
-202 -z+1/2,-x,-y+1/2
-203 -y+1/2,-z,-x+1/2
-204 -x+1/2,-y,+z+1/2
-205 +z+1/2,-x,-y+1/2
-206 -y+1/2,+z,-x+1/2
-207 +z+1/2,-x,+y+1/2
-208 +y+1/2,+z,-x+1/2
-209 -y+1/2,+z,+x+1/2
-210 +x+1/2,-y,+z+1/2
-211 +z+1/2,+x,-y+1/2
-212 -x+1/2,+y,+z+1/2
-213 -y+1/2,-x,-z+1/2
-214 -z+1/2,-y,-x+1/2
-215 -x+1/2,-z,-y+1/2
-216 -y+1/2,-x,+z+1/2
-217 +z+1/2,-y,-x+1/2
-218 -x+1/2,+z,-y+1/2
-219 +z+1/2,-y,+x+1/2
-220 +x+1/2,+z,-y+1/2
-221 -x+1/2,+z,+y+1/2
-222 +y+1/2,-x,+z+1/2
-223 +z+1/2,+y,-x+1/2
-224 -y+1/2,+x,+z+1/2
301 +x+1/2,+y+1/2,+z
302 +z+1/2,+x+1/2,+y
303 +y+1/2,+z+1/2,+x
304 +x+1/2,+y+1/2,-z
305 -z+1/2,+x+1/2,+y
306 +y+1/2,-z+1/2,+x
307 -z+1/2,+x+1/2,-y
308 -y+1/2,-z+1/2,+x
309 +y+1/2,-z+1/2,-x
310 -x+1/2,+y+1/2,-z
311 -z+1/2,-x+1/2,+y
312 +x+1/2,-y+1/2,-z
313 +y+1/2,+x+1/2,+z
314 +z+1/2,+y+1/2,+x
315 +x+1/2,+z+1/2,+y
316 +y+1/2,+x+1/2,-z
317 -z+1/2,+y+1/2,+x
318 +x+1/2,-z+1/2,+y
319 -z+1/2,+y+1/2,-x
320 -x+1/2,-z+1/2,+y
321 +x+1/2,-z+1/2,-y
322 -y+1/2,+x+1/2,-z
323 -z+1/2,-y+1/2,+x
324 +y+1/2,-x+1/2,-z
-301 -x+1/2,-y+1/2,-z
-302 -z+1/2,-x+1/2,-y
-303 -y+1/2,-z+1/2,-x
-304 -x+1/2,-y+1/2,+z
-305 +z+1/2,-x+1/2,-y
-306 -y+1/2,+z+1/2,-x
-307 +z+1/2,-x+1/2,+y
-308 +y+1/2,+z+1/2,-x
-309 -y+1/2,+z+1/2,+x
-310 +x+1/2,-y+1/2,+z
-311 +z+1/2,+x+1/2,-y
-312 -x+1/2,+y+1/2,+z
-313 -y+1/2,-x+1/2,-z
-314 -z+1/2,-y+1/2,-x
-315 -x+1/2,-z+1/2,-y
-316 -y+1/2,-x+1/2,+z
-317 +z+1/2,-y+1/2,-x
-318 -x+1/2,+z+1/2,-y
-319 +z+1/2,-y+1/2,+x
-320 +x+1/2,+z+1/2,-y
-321 -x+1/2,+z+1/2,+y
-322 +y+1/2,-x+1/2,+z
-323 +z+1/2,+y+1/2,-x
-324 -y+1/2,+x+1/2,+z
loop_
_atom_site_type_symbol
_atom_site_label
_atom_site_fract_x
_atom_site_fract_y
_atom_site_fract_z
_atom_site_occupancy
_atom_site_thermal_displace_type
_atom_site_U_iso_or_equiv
_atom_site_symmetry_multiplicity
SR SR1 0.0 0.0 0.0 1.0 Uiso 0.0170(8) 4
O O2 0.5 0.5 0.5 1.0 Uiso 0.0170(8) 4
loop_
_atom_type_symbol
_atom_type_number_in_cell
SR 4.0
O 4.0
loop_
_geom_angle_atom_site_label_1
_geom_angle_atom_site_label_2
_geom_angle_atom_site_label_3
_geom_angle
_geom_angle_site_symmetry_1
_geom_angle_site_symmetry_3
_geom_angle_publ_flag
SR1 SR1 SR1 90.000(19) 101_544 101_545 n
SR1 SR1 SR1 90.000(19) 101_544 101_554 n
SR1 SR1 SR1 179.972 101_544 101_555 n
SR1 SR1 SR1 60.000(11) 101_544 201_454 n
SR1 SR1 SR1 120.000(11) 101_544 201_455 n
SR1 SR1 SR1 60.000(11) 101_544 201_554 n
SR1 SR1 SR1 120.000(11) 101_544 201_555 n
SR1 SR1 SR1 60.000(6) 101_544 301_445 n
SR1 SR1 SR1 120.000(6) 101_544 301_455 n
SR1 SR1 SR1 60.000(6) 101_544 301_545 n
SR1 SR1 SR1 120.000(6) 101_544 301_555 n
SR1 SR1 O2 90.0 101_544 101_444 n
SR1 SR1 O2 90.0 101_544 101_544 n
SR1 SR1 O2 45.000(10) 101_544 201_444 n
SR1 SR1 O2 135.000(10) 101_544 201_454 n
SR1 SR1 O2 45.000(10) 101_544 301_444 n
SR1 SR1 O2 135.000(10) 101_544 301_445 n
SR1 SR1 SR1 180.0 101_545 101_554 n
SR1 SR1 SR1 90.000(19) 101_545 101_555 n
SR1 SR1 SR1 120.000(11) 101_545 201_454 n
SR1 SR1 SR1 60.000(11) 101_545 201_455 n
SR1 SR1 SR1 120.000(11) 101_545 201_554 n
SR1 SR1 SR1 60.000(11) 101_545 201_555 n
SR1 SR1 SR1 60.000(6) 101_545 301_445 n
SR1 SR1 SR1 120.000(6) 101_545 301_455 n
SR1 SR1 SR1 60.000(6) 101_545 301_545 n
SR1 SR1 SR1 120.000(6) 101_545 301_555 n
SR1 SR1 O2 90.0 101_545 101_444 n
SR1 SR1 O2 90.0 101_545 101_544 n
SR1 SR1 O2 45.000(10) 101_545 201_444 n
SR1 SR1 O2 135.000(10) 101_545 201_454 n
SR1 SR1 O2 135.000(10) 101_545 301_444 n
SR1 SR1 O2 45.000(10) 101_545 301_445 n
SR1 SR1 SR1 90.000(19) 101_554 101_555 n
SR1 SR1 SR1 60.000(11) 101_554 201_454 n
SR1 SR1 SR1 120.000(11) 101_554 201_455 n
SR1 SR1 SR1 60.000(11) 101_554 201_554 n
SR1 SR1 SR1 120.000(11) 101_554 201_555 n
SR1 SR1 SR1 120.000(6) 101_554 301_445 n
SR1 SR1 SR1 60.000(6) 101_554 301_455 n
SR1 SR1 SR1 120.000(6) 101_554 301_545 n
SR1 SR1 SR1 60.000(6) 101_554 301_555 n
SR1 SR1 O2 90.0 101_554 101_444 n
SR1 SR1 O2 90.0 101_554 101_544 n
SR1 SR1 O2 135.000(10) 101_554 201_444 n
SR1 SR1 O2 45.000(10) 101_554 201_454 n
SR1 SR1 O2 45.000(10) 101_554 301_444 n
SR1 SR1 O2 135.000(10) 101_554 301_445 n
SR1 SR1 SR1 120.000(11) 101_555 201_454 n
SR1 SR1 SR1 60.000(11) 101_555 201_455 n
SR1 SR1 SR1 120.000(11) 101_555 201_554 n
SR1 SR1 SR1 60.000(11) 101_555 201_555 n
SR1 SR1 SR1 120.000(6) 101_555 301_445 n
SR1 SR1 SR1 60.000(6) 101_555 301_455 n
SR1 SR1 SR1 120.000(6) 101_555 301_545 n
SR1 SR1 SR1 60.000(6) 101_555 301_555 n
SR1 SR1 O2 90.0 101_555 101_444 n
SR1 SR1 O2 90.0 101_555 101_544 n
SR1 SR1 O2 135.000(10) 101_555 201_444 n
SR1 SR1 O2 45.000(10) 101_555 201_454 n
SR1 SR1 O2 135.000(10) 101_555 301_444 n
SR1 SR1 O2 45.000(10) 101_555 301_445 n
SR1 SR1 SR1 90.000(19) 201_454 201_455 n
SR1 SR1 SR1 90.000(19) 201_454 201_554 n
SR1 SR1 SR1 179.972 201_454 201_555 n
SR1 SR1 SR1 60.000(6) 201_454 301_445 n
SR1 SR1 SR1 60.000(6) 201_454 301_455 n
SR1 SR1 SR1 120.000(6) 201_454 301_545 n
SR1 SR1 SR1 120.000(6) 201_454 301_555 n
SR1 SR1 O2 45.000(10) 201_454 101_444 n
SR1 SR1 O2 135.000(10) 201_454 101_544 n
SR1 SR1 O2 90.0 201_454 201_444 n
SR1 SR1 O2 90.0 201_454 201_454 n
SR1 SR1 O2 45.000(10) 201_454 301_444 n
SR1 SR1 O2 135.000(10) 201_454 301_445 n
SR1 SR1 SR1 180.0 201_455 201_554 n
SR1 SR1 SR1 90.000(19) 201_455 201_555 n
SR1 SR1 SR1 60.000(6) 201_455 301_445 n
SR1 SR1 SR1 60.000(6) 201_455 301_455 n
SR1 SR1 SR1 120.000(6) 201_455 301_545 n
SR1 SR1 SR1 120.000(6) 201_455 301_555 n
SR1 SR1 O2 45.000(10) 201_455 101_444 n
SR1 SR1 O2 135.000(10) 201_455 101_544 n
SR1 SR1 O2 90.0 201_455 201_444 n
SR1 SR1 O2 90.0 201_455 201_454 n
SR1 SR1 O2 135.000(10) 201_455 301_444 n
SR1 SR1 O2 45.000(10) 201_455 301_445 n
SR1 SR1 SR1 90.000(19) 201_554 201_555 n
SR1 SR1 SR1 120.000(6) 201_554 301_445 n
SR1 SR1 SR1 120.000(6) 201_554 301_455 n
SR1 SR1 SR1 60.000(6) 201_554 301_545 n
SR1 SR1 SR1 60.000(6) 201_554 301_555 n
SR1 SR1 O2 135.000(10) 201_554 101_444 n
SR1 SR1 O2 45.000(10) 201_554 101_544 n
SR1 SR1 O2 90.0 201_554 201_444 n
SR1 SR1 O2 90.0 201_554 201_454 n
SR1 SR1 O2 45.000(10) 201_554 301_444 n
SR1 SR1 O2 135.000(10) 201_554 301_445 n
SR1 SR1 SR1 120.000(6) 201_555 301_445 n
SR1 SR1 SR1 120.000(6) 201_555 301_455 n
SR1 SR1 SR1 60.000(6) 201_555 301_545 n
SR1 SR1 SR1 60.000(6) 201_555 301_555 n
SR1 SR1 O2 135.000(10) 201_555 101_444 n
SR1 SR1 O2 45.000(10) 201_555 101_544 n
SR1 SR1 O2 90.0 201_555 201_444 n
SR1 SR1 O2 90.0 201_555 201_454 n
SR1 SR1 O2 135.000(10) 201_555 301_444 n
SR1 SR1 O2 45.000(10) 201_555 301_445 n
SR1 SR1 SR1 90.0 301_445 301_455 n
SR1 SR1 SR1 90.0 301_445 301_545 n
SR1 SR1 SR1 179.972 301_445 301_555 n
SR1 SR1 O2 45.0 301_445 101_444 n
SR1 SR1 O2 135.0 301_445 101_544 n
SR1 SR1 O2 45.0 301_445 201_444 n
SR1 SR1 O2 135.0 301_445 201_454 n
SR1 SR1 O2 90.0 301_445 301_444 n
SR1 SR1 O2 90.0 301_445 301_445 n
SR1 SR1 SR1 180.0 301_455 301_545 n
SR1 SR1 SR1 90.0 301_455 301_555 n
SR1 SR1 O2 45.0 301_455 101_444 n
SR1 SR1 O2 135.0 301_455 101_544 n
SR1 SR1 O2 135.0 301_455 201_444 n
SR1 SR1 O2 45.0 301_455 201_454 n
SR1 SR1 O2 90.0 301_455 301_444 n
SR1 SR1 O2 90.0 301_455 301_445 n
SR1 SR1 SR1 90.0 301_545 301_555 n
SR1 SR1 O2 135.0 301_545 101_444 n
SR1 SR1 O2 45.0 301_545 101_544 n
SR1 SR1 O2 45.0 301_545 201_444 n
SR1 SR1 O2 135.0 301_545 201_454 n
SR1 SR1 O2 90.0 301_545 301_444 n
SR1 SR1 O2 90.0 301_545 301_445 n
SR1 SR1 O2 135.0 301_555 101_444 n
SR1 SR1 O2 45.0 301_555 101_544 n
SR1 SR1 O2 135.0 301_555 201_444 n
SR1 SR1 O2 45.0 301_555 201_454 n
SR1 SR1 O2 90.0 301_555 301_444 n
SR1 SR1 O2 90.0 301_555 301_445 n
O2 SR1 O2 180.0 101_444 101_544 n
O2 SR1 O2 90.0 101_444 201_444 n
O2 SR1 O2 90.0 101_444 201_454 n
O2 SR1 O2 90.0 101_444 301_444 n
O2 SR1 O2 90.0 101_444 301_445 n
O2 SR1 O2 90.0 101_544 201_444 n
O2 SR1 O2 90.0 101_544 201_454 n
O2 SR1 O2 90.0 101_544 301_444 n
O2 SR1 O2 90.0 101_544 301_445 n
O2 SR1 O2 180.0 201_444 201_454 n
O2 SR1 O2 90.0 201_444 301_444 n
O2 SR1 O2 90.0 201_444 301_445 n
O2 SR1 O2 90.0 201_454 301_444 n
O2 SR1 O2 90.0 201_454 301_445 n
O2 SR1 O2 180.0 301_444 301_445 n
SR1 O2 SR1 180.0 101_555 101_655 n
SR1 O2 SR1 90.0 101_555 201_555 n
SR1 O2 SR1 90.0 101_555 201_565 n
SR1 O2 SR1 90.0 101_555 301_555 n
SR1 O2 SR1 90.0 101_555 301_556 n
SR1 O2 SR1 90.0 101_655 201_555 n
SR1 O2 SR1 90.0 101_655 201_565 n
SR1 O2 SR1 90.0 101_655 301_555 n
SR1 O2 SR1 90.0 101_655 301_556 n
SR1 O2 SR1 180.0 201_555 201_565 n
SR1 O2 SR1 90.0 201_555 301_555 n
SR1 O2 SR1 90.0 201_555 301_556 n
SR1 O2 SR1 90.0 201_565 301_555 n
SR1 O2 SR1 90.0 201_565 301_556 n
SR1 O2 SR1 180.0 301_555 301_556 n
loop_
_geom_bond_atom_site_label_1
_geom_bond_atom_site_label_2
_geom_bond_distance
_geom_bond_site_symmetry_2
_geom_bond_publ_flag
SR1 SR1 3.6368(6) 101_544 n
SR1 SR1 3.6368(6) 101_545 n
SR1 SR1 3.6368(6) 101_554 n
SR1 SR1 3.6368(6) 101_555 n
SR1 SR1 3.6368(6) 201_454 n
SR1 SR1 3.6368(6) 201_455 n
SR1 SR1 3.6368(6) 201_554 n
SR1 SR1 3.6368(6) 201_555 n
SR1 SR1 3.6368(9) 301_445 n
SR1 SR1 3.6368(9) 301_455 n
SR1 SR1 3.6368(9) 301_545 n
SR1 SR1 3.6368(9) 301_555 n
SR1 O2 2.5716(6) 101_444 n
SR1 O2 2.5716(6) 101_544 n
SR1 O2 2.5716(6) 201_444 n
SR1 O2 2.5716(6) 201_454 n
SR1 O2 2.5716(6) 301_444 n
SR1 O2 2.5716(6) 301_445 n
O2 SR1 2.5716(6) 101_555 n
O2 SR1 2.5716(6) 101_655 n
O2 SR1 2.5716(6) 201_555 n
O2 SR1 2.5716(6) 201_565 n
O2 SR1 2.5716(6) 301_555 n
O2 SR1 2.5716(6) 301_556 n
loop_
_cod_related_entry_id
_cod_related_entry_database
_cod_related_entry_code
1 ChemSpider 66603
