#------------------------------------------------------------------------------
#$Date: 2016-02-16 03:10:39 +0200 (Tue, 16 Feb 2016) $
#$Revision: 176453 $
#$URL: svn://www.crystallography.net/cod/cif/7/10/82/7108284.cif $
#------------------------------------------------------------------------------
#
# This file is available in the Crystallography Open Database (COD),
# http://www.crystallography.net/
#
# All data on this site have been placed in the public domain by the
# contributors.
#
data_7108284
loop_
_publ_author_name
'Thomas Carey'
'Avelino Corma'
'Fernando Rey'
'Chiu C. Tang'
'Joseph A. Hriljac'
'Paul A. Anderson'
_publ_section_title
;
 The effect of extra framework species on the intrinsic negative thermal
 expansion property of zeolites with the LTA topology
;
_journal_name_full               Chem.Commun.
_journal_page_first              5829
_journal_paper_doi               10.1039/c2cc30582h
_journal_volume                  48
_journal_year                    2012
_chemical_formula_sum            'Ag71.14 Al96 O464.45 Si96'
_chemical_formula_weight         20390.12
_chemical_name_mineral           Ag_zeolite_A
_space_group_IT_number           226
_symmetry_space_group_name_Hall  '-F 4a 2 3'
_symmetry_space_group_name_H-M   'F m -3 c'
_cell_angle_alpha                90
_cell_angle_beta                 90
_cell_angle_gamma                90
_cell_formula_units_Z            1
_cell_length_a                   24.590180(47)
_cell_length_b                   24.590180(47)
_cell_length_c                   24.590180(47)
_cell_volume                     14869.12(5)
_exptl_crystal_density_diffrn    2.27735
_exptl_crystal_density_method    'not measured'
_cod_data_source_file            c2cc30582h_3.txt
_cod_data_source_block           Ag_Zeolite_A_260K
_cod_original_cell_volume        14869.115(85)
_cod_original_sg_symbol_H-M      Fm-3c
_cod_original_formula_sum        'Ag71.14 Si96 Al96 O464.45'
_cod_database_code               7108284
loop_
_symmetry_equiv_pos_as_xyz
'-x, -y, -z'
'-x, -y, z'
'-x, y, -z'
'-x, y, z'
'-x+1/2, -z+1/2, -y+1/2'
'-x+1/2, -z+1/2, y+1/2'
'-x+1/2, z+1/2, -y+1/2'
'-x+1/2, z+1/2, y+1/2'
'-y, -z, -x'
'-y, -z, x'
'-y, z, -x'
'-y, z, x'
'-y+1/2, -x+1/2, -z+1/2'
'-y+1/2, -x+1/2, z+1/2'
'-y+1/2, x+1/2, -z+1/2'
'-y+1/2, x+1/2, z+1/2'
'-z, -x, -y'
'-z, -x, y'
'-z, x, -y'
'-z, x, y'
'-z+1/2, -y+1/2, -x+1/2'
'-z+1/2, -y+1/2, x+1/2'
'-z+1/2, y+1/2, -x+1/2'
'-z+1/2, y+1/2, x+1/2'
'z, -x, -y'
'z, -x, y'
'z, x, -y'
'z, x, y'
'z+1/2, -y+1/2, -x+1/2'
'z+1/2, -y+1/2, x+1/2'
'z+1/2, y+1/2, -x+1/2'
'z+1/2, y+1/2, x+1/2'
'y, -z, -x'
'y, -z, x'
'y, z, -x'
'y, z, x'
'y+1/2, -x+1/2, -z+1/2'
'y+1/2, -x+1/2, z+1/2'
'y+1/2, x+1/2, -z+1/2'
'y+1/2, x+1/2, z+1/2'
'x, -y, -z'
'x, -y, z'
'x, y, -z'
'x, y, z'
'x+1/2, -z+1/2, -y+1/2'
'x+1/2, -z+1/2, y+1/2'
'x+1/2, z+1/2, -y+1/2'
'x+1/2, z+1/2, y+1/2'
'-x+1/2, -y+1/2, -z'
'-x+1/2, -y+1/2, z'
'-x+1/2, y+1/2, -z'
'-x+1/2, y+1/2, z'
'-x, -z, -y+1/2'
'-x, -z, y+1/2'
'-x, z, -y+1/2'
'-x, z, y+1/2'
'-y+1/2, -z+1/2, -x'
'-y+1/2, -z+1/2, x'
'-y+1/2, z+1/2, -x'
'-y+1/2, z+1/2, x'
'-y, -x, -z+1/2'
'-y, -x, z+1/2'
'-y, x, -z+1/2'
'-y, x, z+1/2'
'-z+1/2, -x+1/2, -y'
'-z+1/2, -x+1/2, y'
'-z+1/2, x+1/2, -y'
'-z+1/2, x+1/2, y'
'-z, -y, -x+1/2'
'-z, -y, x+1/2'
'-z, y, -x+1/2'
'-z, y, x+1/2'
'z+1/2, -x+1/2, -y'
'z+1/2, -x+1/2, y'
'z+1/2, x+1/2, -y'
'z+1/2, x+1/2, y'
'z, -y, -x+1/2'
'z, -y, x+1/2'
'z, y, -x+1/2'
'z, y, x+1/2'
'y+1/2, -z+1/2, -x'
'y+1/2, -z+1/2, x'
'y+1/2, z+1/2, -x'
'y+1/2, z+1/2, x'
'y, -x, -z+1/2'
'y, -x, z+1/2'
'y, x, -z+1/2'
'y, x, z+1/2'
'x+1/2, -y+1/2, -z'
'x+1/2, -y+1/2, z'
'x+1/2, y+1/2, -z'
'x+1/2, y+1/2, z'
'x, -z, -y+1/2'
'x, -z, y+1/2'
'x, z, -y+1/2'
'x, z, y+1/2'
'-x+1/2, -y, -z+1/2'
'-x+1/2, -y, z+1/2'
'-x+1/2, y, -z+1/2'
'-x+1/2, y, z+1/2'
'-x, -z+1/2, -y'
'-x, -z+1/2, y'
'-x, z+1/2, -y'
'-x, z+1/2, y'
'-y+1/2, -z, -x+1/2'
'-y+1/2, -z, x+1/2'
'-y+1/2, z, -x+1/2'
'-y+1/2, z, x+1/2'
'-y, -x+1/2, -z'
'-y, -x+1/2, z'
'-y, x+1/2, -z'
'-y, x+1/2, z'
'-z+1/2, -x, -y+1/2'
'-z+1/2, -x, y+1/2'
'-z+1/2, x, -y+1/2'
'-z+1/2, x, y+1/2'
'-z, -y+1/2, -x'
'-z, -y+1/2, x'
'-z, y+1/2, -x'
'-z, y+1/2, x'
'z+1/2, -x, -y+1/2'
'z+1/2, -x, y+1/2'
'z+1/2, x, -y+1/2'
'z+1/2, x, y+1/2'
'z, -y+1/2, -x'
'z, -y+1/2, x'
'z, y+1/2, -x'
'z, y+1/2, x'
'y+1/2, -z, -x+1/2'
'y+1/2, -z, x+1/2'
'y+1/2, z, -x+1/2'
'y+1/2, z, x+1/2'
'y, -x+1/2, -z'
'y, -x+1/2, z'
'y, x+1/2, -z'
'y, x+1/2, z'
'x+1/2, -y, -z+1/2'
'x+1/2, -y, z+1/2'
'x+1/2, y, -z+1/2'
'x+1/2, y, z+1/2'
'x, -z+1/2, -y'
'x, -z+1/2, y'
'x, z+1/2, -y'
'x, z+1/2, y'
'-x, -y+1/2, -z+1/2'
'-x, -y+1/2, z+1/2'
'-x, y+1/2, -z+1/2'
'-x, y+1/2, z+1/2'
'-x+1/2, -z, -y'
'-x+1/2, -z, y'
'-x+1/2, z, -y'
'-x+1/2, z, y'
'-y, -z+1/2, -x+1/2'
'-y, -z+1/2, x+1/2'
'-y, z+1/2, -x+1/2'
'-y, z+1/2, x+1/2'
'-y+1/2, -x, -z'
'-y+1/2, -x, z'
'-y+1/2, x, -z'
'-y+1/2, x, z'
'-z, -x+1/2, -y+1/2'
'-z, -x+1/2, y+1/2'
'-z, x+1/2, -y+1/2'
'-z, x+1/2, y+1/2'
'-z+1/2, -y, -x'
'-z+1/2, -y, x'
'-z+1/2, y, -x'
'-z+1/2, y, x'
'z, -x+1/2, -y+1/2'
'z, -x+1/2, y+1/2'
'z, x+1/2, -y+1/2'
'z, x+1/2, y+1/2'
'z+1/2, -y, -x'
'z+1/2, -y, x'
'z+1/2, y, -x'
'z+1/2, y, x'
'y, -z+1/2, -x+1/2'
'y, -z+1/2, x+1/2'
'y, z+1/2, -x+1/2'
'y, z+1/2, x+1/2'
'y+1/2, -x, -z'
'y+1/2, -x, z'
'y+1/2, x, -z'
'y+1/2, x, z'
'x, -y+1/2, -z+1/2'
'x, -y+1/2, z+1/2'
'x, y+1/2, -z+1/2'
'x, y+1/2, z+1/2'
'x+1/2, -z, -y'
'x+1/2, -z, y'
'x+1/2, z, -y'
'x+1/2, z, y'
loop_
_atom_site_label
_atom_site_type_symbol
_atom_site_symmetry_multiplicity
_atom_site_fract_x
_atom_site_fract_y
_atom_site_fract_z
_atom_site_occupancy
_atom_site_B_iso_or_equiv
Si1 Si+4 96 0 0.08999(25) 0.18364(21) 1 0.984(43)
Al1 Al+3 96 0 0.18398(22) 0.08950(26) 1 0.984(43)
O1 O-2 96 0 0.10840(24) 0.24440(50) 1 2.360(94)
O2 O-2 96 0 0.15018(54) 0.15175(51) 1 2.360(94)
O3 O-2 192 0.05066(28) 0.05600(28) 0.17143(19) 1 2.360(94)
I1 Ag+1 64 0.11870(15) 0.11870(15) 0.11870(15) 0.3719(60) 2.422(74)
I12 Ag+1 64 0.08961(50) 0.08961(50) 0.08961(50) 0.1270(32) 2.422(74)
I13 Ag+1 64 0.07015(18) 0.07015(18) 0.07015(18) 0.2347(37) 2.422(74)
I14 Ag+1 0 0.10646(24) 0.10646(24) 0.10646(24) 0.1906(50) 0
I2 Ag+1 96 0 0.23421(30) 0.20373(25) 0.1249(11) 2.422(74)
O4 O-2 192 0(3100000) 0(47000) 0(160000) 0.0072(15) 10.3(15)
O5 O-2 192 0.94094(52) 0.0277(30) 0.0248(30) 0.2853(58) 10.3(15)
O6 O-2 64 0.15720(71) 0.15720(71) 0.15720(71) 0.388(18) 7.4(11)
