#------------------------------------------------------------------------------
#$Date: 2016-02-16 03:10:39 +0200 (Tue, 16 Feb 2016) $
#$Revision: 176453 $
#$URL: svn://www.crystallography.net/cod/cif/7/10/82/7108293.cif $
#------------------------------------------------------------------------------
#
# This file is available in the Crystallography Open Database (COD),
# http://www.crystallography.net/
#
# All data on this site have been placed in the public domain by the
# contributors.
#
data_7108293
loop_
_publ_author_name
'Thomas Carey'
'Avelino Corma'
'Fernando Rey'
'Chiu C. Tang'
'Joseph A. Hriljac'
'Paul A. Anderson'
_publ_section_title
;
 The effect of extra framework species on the intrinsic negative thermal
 expansion property of zeolites with the LTA topology
;
_journal_name_full               Chem.Commun.
_journal_page_first              5829
_journal_paper_doi               10.1039/c2cc30582h
_journal_volume                  48
_journal_year                    2012
_chemical_formula_sum            'Ag88.734 Al96 O384 Si96'
_chemical_formula_weight         21000.61
_chemical_name_mineral           dehydrated_AgA
_space_group_IT_number           226
_symmetry_space_group_name_Hall  '-F 4a 2 3'
_symmetry_space_group_name_H-M   'F m -3 c'
_cell_angle_alpha                90
_cell_angle_beta                 90
_cell_angle_gamma                90
_cell_formula_units_Z            1
_cell_length_a                   24.663580(69)
_cell_length_b                   24.663580(69)
_cell_length_c                   24.663580(69)
_cell_volume                     15002.66(7)
_exptl_crystal_density_diffrn    2.32467
_exptl_crystal_density_method    'not measured'
_cod_data_source_file            c2cc30582h_3.txt
_cod_data_source_block           Dehydrated_Ag_Zeolite_A_300K
_cod_original_cell_volume        15002.66(13)
_cod_original_sg_symbol_H-M      Fm-3c
_cod_original_formula_sum        'Ag88.734 Si96 Al96 O384'
_cod_database_code               7108293
loop_
_symmetry_equiv_pos_as_xyz
'-x, -y, -z'
'-x, -y, z'
'-x, y, -z'
'-x, y, z'
'-x+1/2, -z+1/2, -y+1/2'
'-x+1/2, -z+1/2, y+1/2'
'-x+1/2, z+1/2, -y+1/2'
'-x+1/2, z+1/2, y+1/2'
'-y, -z, -x'
'-y, -z, x'
'-y, z, -x'
'-y, z, x'
'-y+1/2, -x+1/2, -z+1/2'
'-y+1/2, -x+1/2, z+1/2'
'-y+1/2, x+1/2, -z+1/2'
'-y+1/2, x+1/2, z+1/2'
'-z, -x, -y'
'-z, -x, y'
'-z, x, -y'
'-z, x, y'
'-z+1/2, -y+1/2, -x+1/2'
'-z+1/2, -y+1/2, x+1/2'
'-z+1/2, y+1/2, -x+1/2'
'-z+1/2, y+1/2, x+1/2'
'z, -x, -y'
'z, -x, y'
'z, x, -y'
'z, x, y'
'z+1/2, -y+1/2, -x+1/2'
'z+1/2, -y+1/2, x+1/2'
'z+1/2, y+1/2, -x+1/2'
'z+1/2, y+1/2, x+1/2'
'y, -z, -x'
'y, -z, x'
'y, z, -x'
'y, z, x'
'y+1/2, -x+1/2, -z+1/2'
'y+1/2, -x+1/2, z+1/2'
'y+1/2, x+1/2, -z+1/2'
'y+1/2, x+1/2, z+1/2'
'x, -y, -z'
'x, -y, z'
'x, y, -z'
'x, y, z'
'x+1/2, -z+1/2, -y+1/2'
'x+1/2, -z+1/2, y+1/2'
'x+1/2, z+1/2, -y+1/2'
'x+1/2, z+1/2, y+1/2'
'-x+1/2, -y+1/2, -z'
'-x+1/2, -y+1/2, z'
'-x+1/2, y+1/2, -z'
'-x+1/2, y+1/2, z'
'-x, -z, -y+1/2'
'-x, -z, y+1/2'
'-x, z, -y+1/2'
'-x, z, y+1/2'
'-y+1/2, -z+1/2, -x'
'-y+1/2, -z+1/2, x'
'-y+1/2, z+1/2, -x'
'-y+1/2, z+1/2, x'
'-y, -x, -z+1/2'
'-y, -x, z+1/2'
'-y, x, -z+1/2'
'-y, x, z+1/2'
'-z+1/2, -x+1/2, -y'
'-z+1/2, -x+1/2, y'
'-z+1/2, x+1/2, -y'
'-z+1/2, x+1/2, y'
'-z, -y, -x+1/2'
'-z, -y, x+1/2'
'-z, y, -x+1/2'
'-z, y, x+1/2'
'z+1/2, -x+1/2, -y'
'z+1/2, -x+1/2, y'
'z+1/2, x+1/2, -y'
'z+1/2, x+1/2, y'
'z, -y, -x+1/2'
'z, -y, x+1/2'
'z, y, -x+1/2'
'z, y, x+1/2'
'y+1/2, -z+1/2, -x'
'y+1/2, -z+1/2, x'
'y+1/2, z+1/2, -x'
'y+1/2, z+1/2, x'
'y, -x, -z+1/2'
'y, -x, z+1/2'
'y, x, -z+1/2'
'y, x, z+1/2'
'x+1/2, -y+1/2, -z'
'x+1/2, -y+1/2, z'
'x+1/2, y+1/2, -z'
'x+1/2, y+1/2, z'
'x, -z, -y+1/2'
'x, -z, y+1/2'
'x, z, -y+1/2'
'x, z, y+1/2'
'-x+1/2, -y, -z+1/2'
'-x+1/2, -y, z+1/2'
'-x+1/2, y, -z+1/2'
'-x+1/2, y, z+1/2'
'-x, -z+1/2, -y'
'-x, -z+1/2, y'
'-x, z+1/2, -y'
'-x, z+1/2, y'
'-y+1/2, -z, -x+1/2'
'-y+1/2, -z, x+1/2'
'-y+1/2, z, -x+1/2'
'-y+1/2, z, x+1/2'
'-y, -x+1/2, -z'
'-y, -x+1/2, z'
'-y, x+1/2, -z'
'-y, x+1/2, z'
'-z+1/2, -x, -y+1/2'
'-z+1/2, -x, y+1/2'
'-z+1/2, x, -y+1/2'
'-z+1/2, x, y+1/2'
'-z, -y+1/2, -x'
'-z, -y+1/2, x'
'-z, y+1/2, -x'
'-z, y+1/2, x'
'z+1/2, -x, -y+1/2'
'z+1/2, -x, y+1/2'
'z+1/2, x, -y+1/2'
'z+1/2, x, y+1/2'
'z, -y+1/2, -x'
'z, -y+1/2, x'
'z, y+1/2, -x'
'z, y+1/2, x'
'y+1/2, -z, -x+1/2'
'y+1/2, -z, x+1/2'
'y+1/2, z, -x+1/2'
'y+1/2, z, x+1/2'
'y, -x+1/2, -z'
'y, -x+1/2, z'
'y, x+1/2, -z'
'y, x+1/2, z'
'x+1/2, -y, -z+1/2'
'x+1/2, -y, z+1/2'
'x+1/2, y, -z+1/2'
'x+1/2, y, z+1/2'
'x, -z+1/2, -y'
'x, -z+1/2, y'
'x, z+1/2, -y'
'x, z+1/2, y'
'-x, -y+1/2, -z+1/2'
'-x, -y+1/2, z+1/2'
'-x, y+1/2, -z+1/2'
'-x, y+1/2, z+1/2'
'-x+1/2, -z, -y'
'-x+1/2, -z, y'
'-x+1/2, z, -y'
'-x+1/2, z, y'
'-y, -z+1/2, -x+1/2'
'-y, -z+1/2, x+1/2'
'-y, z+1/2, -x+1/2'
'-y, z+1/2, x+1/2'
'-y+1/2, -x, -z'
'-y+1/2, -x, z'
'-y+1/2, x, -z'
'-y+1/2, x, z'
'-z, -x+1/2, -y+1/2'
'-z, -x+1/2, y+1/2'
'-z, x+1/2, -y+1/2'
'-z, x+1/2, y+1/2'
'-z+1/2, -y, -x'
'-z+1/2, -y, x'
'-z+1/2, y, -x'
'-z+1/2, y, x'
'z, -x+1/2, -y+1/2'
'z, -x+1/2, y+1/2'
'z, x+1/2, -y+1/2'
'z, x+1/2, y+1/2'
'z+1/2, -y, -x'
'z+1/2, -y, x'
'z+1/2, y, -x'
'z+1/2, y, x'
'y, -z+1/2, -x+1/2'
'y, -z+1/2, x+1/2'
'y, z+1/2, -x+1/2'
'y, z+1/2, x+1/2'
'y+1/2, -x, -z'
'y+1/2, -x, z'
'y+1/2, x, -z'
'y+1/2, x, z'
'x, -y+1/2, -z+1/2'
'x, -y+1/2, z+1/2'
'x, y+1/2, -z+1/2'
'x, y+1/2, z+1/2'
'x+1/2, -z, -y'
'x+1/2, -z, y'
'x+1/2, z, -y'
'x+1/2, z, y'
loop_
_atom_site_label
_atom_site_type_symbol
_atom_site_symmetry_multiplicity
_atom_site_fract_x
_atom_site_fract_y
_atom_site_fract_z
_atom_site_occupancy
_atom_site_B_iso_or_equiv
Si1 Si+4 96 0 0.09391(28) 0.18412(27) 1 0.702(44)
Al1 Al+3 96 0 0.18530(29) 0.09136(30) 1 0.702(44)
O1 O-2 96 0 0.11091(24) 0.24786(74) 1 1.385(88)
O2 O-2 96 0 0.14760(56) 0.15150(59) 1 1.385(88)
O3 O-2 192 0.05259(33) 0.05684(32) 0.17139(17) 1 1.385(88)
Ag1 Ag+1 64 0.096440(30) 0.096440(30) 0.096440(30) 0.9694(31) 2.897(36)
Ag2 Ag+1 96 0 0.22273(23) 0.20890(25) 0.1939(12) 2.897(36)
Ag4 Ag+1 48 0 0 0.08061(28) 0.1683(16) 2.897(36)
