#------------------------------------------------------------------------------
#$Date: 2016-02-16 03:10:39 +0200 (Tue, 16 Feb 2016) $
#$Revision: 176453 $
#$URL: svn://www.crystallography.net/cod/cif/7/10/82/7108291.cif $
#------------------------------------------------------------------------------
#
# This file is available in the Crystallography Open Database (COD),
# http://www.crystallography.net/
#
# All data on this site have been placed in the public domain by the
# contributors.
#
data_7108291
loop_
_publ_author_name
'Thomas Carey'
'Avelino Corma'
'Fernando Rey'
'Chiu C. Tang'
'Joseph A. Hriljac'
'Paul A. Anderson'
_publ_section_title
;
 The effect of extra framework species on the intrinsic negative thermal
 expansion property of zeolites with the LTA topology
;
_journal_name_full               Chem.Commun.
_journal_page_first              5829
_journal_paper_doi               10.1039/c2cc30582h
_journal_volume                  48
_journal_year                    2012
_chemical_formula_sum            'Ag67.88 Al96 O474.92 Si96'
_chemical_formula_weight         20.206.02
_chemical_name_mineral           Ag_zeolite_A
_space_group_IT_number           226
_symmetry_space_group_name_Hall  '-F 4a 2 3'
_symmetry_space_group_name_H-M   'F m -3 c'
_cell_angle_alpha                90
_cell_angle_beta                 90
_cell_angle_gamma                90
_cell_formula_units_Z            1
_cell_length_a                   24.564570(56)
_cell_length_b                   24.564570(56)
_cell_length_c                   24.564570(56)
_cell_volume                     14822.71(6)
_exptl_crystal_density_diffrn    2.26385
_exptl_crystal_density_method    'not measured'
_cod_data_source_file            c2cc30582h_3.txt
_cod_data_source_block           Ag_Zeolite_A_120K
_cod_original_cell_volume        14822.71(10)
_cod_original_sg_symbol_H-M      Fm-3c
_cod_original_formula_sum        'Ag67.88 Si96 Al96 O474.92'
_cod_database_code               7108291
loop_
_symmetry_equiv_pos_as_xyz
'-x, -y, -z'
'-x, -y, z'
'-x, y, -z'
'-x, y, z'
'-x+1/2, -z+1/2, -y+1/2'
'-x+1/2, -z+1/2, y+1/2'
'-x+1/2, z+1/2, -y+1/2'
'-x+1/2, z+1/2, y+1/2'
'-y, -z, -x'
'-y, -z, x'
'-y, z, -x'
'-y, z, x'
'-y+1/2, -x+1/2, -z+1/2'
'-y+1/2, -x+1/2, z+1/2'
'-y+1/2, x+1/2, -z+1/2'
'-y+1/2, x+1/2, z+1/2'
'-z, -x, -y'
'-z, -x, y'
'-z, x, -y'
'-z, x, y'
'-z+1/2, -y+1/2, -x+1/2'
'-z+1/2, -y+1/2, x+1/2'
'-z+1/2, y+1/2, -x+1/2'
'-z+1/2, y+1/2, x+1/2'
'z, -x, -y'
'z, -x, y'
'z, x, -y'
'z, x, y'
'z+1/2, -y+1/2, -x+1/2'
'z+1/2, -y+1/2, x+1/2'
'z+1/2, y+1/2, -x+1/2'
'z+1/2, y+1/2, x+1/2'
'y, -z, -x'
'y, -z, x'
'y, z, -x'
'y, z, x'
'y+1/2, -x+1/2, -z+1/2'
'y+1/2, -x+1/2, z+1/2'
'y+1/2, x+1/2, -z+1/2'
'y+1/2, x+1/2, z+1/2'
'x, -y, -z'
'x, -y, z'
'x, y, -z'
'x, y, z'
'x+1/2, -z+1/2, -y+1/2'
'x+1/2, -z+1/2, y+1/2'
'x+1/2, z+1/2, -y+1/2'
'x+1/2, z+1/2, y+1/2'
'-x+1/2, -y+1/2, -z'
'-x+1/2, -y+1/2, z'
'-x+1/2, y+1/2, -z'
'-x+1/2, y+1/2, z'
'-x, -z, -y+1/2'
'-x, -z, y+1/2'
'-x, z, -y+1/2'
'-x, z, y+1/2'
'-y+1/2, -z+1/2, -x'
'-y+1/2, -z+1/2, x'
'-y+1/2, z+1/2, -x'
'-y+1/2, z+1/2, x'
'-y, -x, -z+1/2'
'-y, -x, z+1/2'
'-y, x, -z+1/2'
'-y, x, z+1/2'
'-z+1/2, -x+1/2, -y'
'-z+1/2, -x+1/2, y'
'-z+1/2, x+1/2, -y'
'-z+1/2, x+1/2, y'
'-z, -y, -x+1/2'
'-z, -y, x+1/2'
'-z, y, -x+1/2'
'-z, y, x+1/2'
'z+1/2, -x+1/2, -y'
'z+1/2, -x+1/2, y'
'z+1/2, x+1/2, -y'
'z+1/2, x+1/2, y'
'z, -y, -x+1/2'
'z, -y, x+1/2'
'z, y, -x+1/2'
'z, y, x+1/2'
'y+1/2, -z+1/2, -x'
'y+1/2, -z+1/2, x'
'y+1/2, z+1/2, -x'
'y+1/2, z+1/2, x'
'y, -x, -z+1/2'
'y, -x, z+1/2'
'y, x, -z+1/2'
'y, x, z+1/2'
'x+1/2, -y+1/2, -z'
'x+1/2, -y+1/2, z'
'x+1/2, y+1/2, -z'
'x+1/2, y+1/2, z'
'x, -z, -y+1/2'
'x, -z, y+1/2'
'x, z, -y+1/2'
'x, z, y+1/2'
'-x+1/2, -y, -z+1/2'
'-x+1/2, -y, z+1/2'
'-x+1/2, y, -z+1/2'
'-x+1/2, y, z+1/2'
'-x, -z+1/2, -y'
'-x, -z+1/2, y'
'-x, z+1/2, -y'
'-x, z+1/2, y'
'-y+1/2, -z, -x+1/2'
'-y+1/2, -z, x+1/2'
'-y+1/2, z, -x+1/2'
'-y+1/2, z, x+1/2'
'-y, -x+1/2, -z'
'-y, -x+1/2, z'
'-y, x+1/2, -z'
'-y, x+1/2, z'
'-z+1/2, -x, -y+1/2'
'-z+1/2, -x, y+1/2'
'-z+1/2, x, -y+1/2'
'-z+1/2, x, y+1/2'
'-z, -y+1/2, -x'
'-z, -y+1/2, x'
'-z, y+1/2, -x'
'-z, y+1/2, x'
'z+1/2, -x, -y+1/2'
'z+1/2, -x, y+1/2'
'z+1/2, x, -y+1/2'
'z+1/2, x, y+1/2'
'z, -y+1/2, -x'
'z, -y+1/2, x'
'z, y+1/2, -x'
'z, y+1/2, x'
'y+1/2, -z, -x+1/2'
'y+1/2, -z, x+1/2'
'y+1/2, z, -x+1/2'
'y+1/2, z, x+1/2'
'y, -x+1/2, -z'
'y, -x+1/2, z'
'y, x+1/2, -z'
'y, x+1/2, z'
'x+1/2, -y, -z+1/2'
'x+1/2, -y, z+1/2'
'x+1/2, y, -z+1/2'
'x+1/2, y, z+1/2'
'x, -z+1/2, -y'
'x, -z+1/2, y'
'x, z+1/2, -y'
'x, z+1/2, y'
'-x, -y+1/2, -z+1/2'
'-x, -y+1/2, z+1/2'
'-x, y+1/2, -z+1/2'
'-x, y+1/2, z+1/2'
'-x+1/2, -z, -y'
'-x+1/2, -z, y'
'-x+1/2, z, -y'
'-x+1/2, z, y'
'-y, -z+1/2, -x+1/2'
'-y, -z+1/2, x+1/2'
'-y, z+1/2, -x+1/2'
'-y, z+1/2, x+1/2'
'-y+1/2, -x, -z'
'-y+1/2, -x, z'
'-y+1/2, x, -z'
'-y+1/2, x, z'
'-z, -x+1/2, -y+1/2'
'-z, -x+1/2, y+1/2'
'-z, x+1/2, -y+1/2'
'-z, x+1/2, y+1/2'
'-z+1/2, -y, -x'
'-z+1/2, -y, x'
'-z+1/2, y, -x'
'-z+1/2, y, x'
'z, -x+1/2, -y+1/2'
'z, -x+1/2, y+1/2'
'z, x+1/2, -y+1/2'
'z, x+1/2, y+1/2'
'z+1/2, -y, -x'
'z+1/2, -y, x'
'z+1/2, y, -x'
'z+1/2, y, x'
'y, -z+1/2, -x+1/2'
'y, -z+1/2, x+1/2'
'y, z+1/2, -x+1/2'
'y, z+1/2, x+1/2'
'y+1/2, -x, -z'
'y+1/2, -x, z'
'y+1/2, x, -z'
'y+1/2, x, z'
'x, -y+1/2, -z+1/2'
'x, -y+1/2, z+1/2'
'x, y+1/2, -z+1/2'
'x, y+1/2, z+1/2'
'x+1/2, -z, -y'
'x+1/2, -z, y'
'x+1/2, z, -y'
'x+1/2, z, y'
loop_
_atom_site_label
_atom_site_type_symbol
_atom_site_symmetry_multiplicity
_atom_site_fract_x
_atom_site_fract_y
_atom_site_fract_z
_atom_site_occupancy
_atom_site_B_iso_or_equiv
Si1 Si+4 96 0 0.08999(28) 0.18364(23) 1 1.039(46)
Al1 Al+3 96 0 0.18398(24) 0.08950(29) 1 1.039(46)
O1 O-2 96 0 0.10838(24) 0.24441(52) 1 2.181(95)
O2 O-2 96 0 0.15019(57) 0.15176(54) 1 2.181(95)
O3 O-2 192 0.05066(30) 0.05599(30) 0.17144(19) 1 2.181(95)
I1 Ag+1 64 0.11828(16) 0.11828(16) 0.11828(16) 0.3300(60) 1.917(76)
I12 Ag+1 64 0.08842(53) 0.08842(53) 0.08842(53) 0.1049(31) 1.917(76)
I13 Ag+1 64 0.06878(17) 0.06878(17) 0.06878(17) 0.2337(36) 1.917(76)
I14 Ag+1 0 0.10589(22) 0.10589(22) 0.10589(22) 0.2148(50) 0
I2 Ag+1 96 0 0.23629(33) 0.20268(26) 0.1181(11) 1.917(76)
O4 O-2 192 0(24) 0(23000) 0(240) 0.0033(16) 10.0(15)
O5 O-2 192 0.94120(51) 0.0278(30) 0.0248(31) 0.2997(60) 10.0(15)
O6 O-2 64 0.15843(58) 0.15843(58) 0.15843(58) 0.501(18) 8.09(95)
