#------------------------------------------------------------------------------
#$Date: 2016-03-26 16:58:52 +0200 (Sat, 26 Mar 2016) $
#$Revision: 180366 $
#$URL: svn://www.crystallography.net/cod/cif/7/20/35/7203512.cif $
#------------------------------------------------------------------------------
#
# This file is available in the Crystallography Open Database (COD),
# http://www.crystallography.net/
#
# All data on this site have been placed in the public domain by the
# contributors.
#
data_7203512
loop_
_publ_author_name
'Harvey, Elizabeth J.'
'Ashbrook, Sharon E.'
'Lumpkin, Gregory R.'
'Redfern, Simon A. T.'
_publ_section_title
;
 Characterisation of the (Y1?xLax)2Ti2O7 system by powder diffraction
 and nuclear magnetic resonance methods
;
_journal_issue                   48
_journal_name_full               'Journal of Materials Chemistry'
_journal_page_first              4665
_journal_paper_doi               10.1039/b608053g
_journal_volume                  16
_journal_year                    2006
_chemical_compound_source        Synthetic
_chemical_formula_structural     Y2Ti2O7
_chemical_formula_sum            'O7 Ti1.99 Y1.98'
_chemical_formula_weight         383.21
_chemical_melting_point_gt       1500
_chemical_name_common            'Yttrium Lanthanum Titanate'
_chemical_name_systematic        'Yttrium Lanthanum Titanate'
_space_group_IT_number           227
_symmetry_cell_setting           cubic
_symmetry_Int_Tables_number      227
_symmetry_space_group_name_Hall  '-F 4vw 2vw 3'
_symmetry_space_group_name_H-M   'F d -3 m :2'
_audit_creation_date             2006-06-02T17:32
_audit_creation_method           'from EXP file using GSAS2CIF'
_audit_update_record
' 2006-06-02T17:32 Initial CIF as created by GSAS2CIF'
_cell_angle_alpha                90.0
_cell_angle_beta                 90.0
_cell_angle_gamma                90.0
_cell_formula_units_Z            8
_cell_length_a                   10.093972(26)
_cell_length_b                   10.093972
_cell_length_c                   10.093972
_cell_volume                     1028.457(3)
_computing_structure_refinement  GSAS
_pd_block_id
2006-06-02T17:32|Y2TI2O7MK8|E_Harvey|POLARIS_Bank_C
_pd_phase_name
'from C:/gsas/GSASace/isis251104/chtoun_y2ti2o7_83593.cif'
_refine_ls_goodness_of_fit_all   3.67
_refine_ls_matrix_type           full
_refine_ls_number_parameters     21
_refine_ls_number_restraints     0
_refine_ls_shift/su_max          0.01
_refine_ls_shift/su_mean         0.00
_cod_data_source_file            b608053g.txt
_cod_data_source_block           Y2TI2O7MK8_publ
_cod_depositor_comments
;
The following automatic conversions were performed:

'_chemical_melting_point' tag was changed to
'_chemical_melting_point_gt' since the value was specified 'more
than' ('>') a certain temperature. The value '> 1500' was changed to
'1500' - it should be numeric and without a unit designator.

Automatic conversion script
Id: cif_fix_values 1569 2011-02-09 13:29:24Z adriana 
;
_cod_original_cell_volume        1028.457(8)
_cod_original_sg_symbol_H-M      'F d -3 m'
_cod_database_code               7203512
loop_
_symmetry_equiv_pos_site_id
_symmetry_equiv_pos_as_xyz
1 +x,+y,+z
2 +z,+x,+y
3 +y,+z,+x
4 +x+1/4,+y+1/4,-z
5 -z,+x+1/4,+y+1/4
6 +y+1/4,-z,+x+1/4
7 -z+1/4,+x+1/2,-y+3/4
8 -y+3/4,-z+1/4,+x+1/2
9 +y+1/2,-z+1/4,-x+3/4
10 -x+3/4,+y+1/2,-z+1/4
11 -z+1/4,-x+3/4,+y+1/2
12 +x+1/2,-y+3/4,-z+1/4
13 +y,+x,+z
14 +z,+y,+x
15 +x,+z,+y
16 +y+1/4,+x+1/4,-z
17 -z,+y+1/4,+x+1/4
18 +x+1/4,-z,+y+1/4
19 -z+1/4,+y+1/2,-x+3/4
20 -x+3/4,-z+1/4,+y+1/2
21 +x+1/2,-z+1/4,-y+3/4
22 -y+3/4,+x+1/2,-z+1/4
23 -z+1/4,-y+3/4,+x+1/2
24 +y+1/2,-x+3/4,-z+1/4
-1 -x,-y,-z
-2 -z,-x,-y
-3 -y,-z,-x
-4 -x+3/4,-y+3/4,+z
-5 +z,-x+3/4,-y+3/4
-6 -y+3/4,+z,-x+3/4
-7 +z+3/4,-x+1/2,+y+1/4
-8 +y+1/4,+z+3/4,-x+1/2
-9 -y+1/2,+z+3/4,+x+1/4
-10 +x+1/4,-y+1/2,+z+3/4
-11 +z+3/4,+x+1/4,-y+1/2
-12 -x+1/2,+y+1/4,+z+3/4
-13 -y,-x,-z
-14 -z,-y,-x
-15 -x,-z,-y
-16 -y+3/4,-x+3/4,+z
-17 +z,-y+3/4,-x+3/4
-18 -x+3/4,+z,-y+3/4
-19 +z+3/4,-y+1/2,+x+1/4
-20 +x+1/4,+z+3/4,-y+1/2
-21 -x+1/2,+z+3/4,+y+1/4
-22 +y+1/4,-x+1/2,+z+3/4
-23 +z+3/4,+y+1/4,-x+1/2
-24 -y+1/2,+x+1/4,+z+3/4
101 +x,+y+1/2,+z+1/2
102 +z,+x+1/2,+y+1/2
103 +y,+z+1/2,+x+1/2
104 +x+1/4,+y+3/4,-z+1/2
105 -z,+x+3/4,+y+3/4
106 +y+1/4,-z+1/2,+x+3/4
107 -z+1/4,+x,-y+1/4
108 -y+3/4,-z+3/4,+x
109 +y+1/2,-z+3/4,-x+1/4
110 -x+3/4,+y,-z+3/4
111 -z+1/4,-x+1/4,+y
112 +x+1/2,-y+1/4,-z+3/4
113 +y,+x+1/2,+z+1/2
114 +z,+y+1/2,+x+1/2
115 +x,+z+1/2,+y+1/2
116 +y+1/4,+x+3/4,-z+1/2
117 -z,+y+3/4,+x+3/4
118 +x+1/4,-z+1/2,+y+3/4
119 -z+1/4,+y,-x+1/4
120 -x+3/4,-z+3/4,+y
121 +x+1/2,-z+3/4,-y+1/4
122 -y+3/4,+x,-z+3/4
123 -z+1/4,-y+1/4,+x
124 +y+1/2,-x+1/4,-z+3/4
-101 -x,-y+1/2,-z+1/2
-102 -z,-x+1/2,-y+1/2
-103 -y,-z+1/2,-x+1/2
-104 -x+3/4,-y+1/4,+z+1/2
-105 +z,-x+1/4,-y+1/4
-106 -y+3/4,+z+1/2,-x+1/4
-107 +z+3/4,-x,+y+3/4
-108 +y+1/4,+z+1/4,-x
-109 -y+1/2,+z+1/4,+x+3/4
-110 +x+1/4,-y,+z+1/4
-111 +z+3/4,+x+3/4,-y
-112 -x+1/2,+y+3/4,+z+1/4
-113 -y,-x+1/2,-z+1/2
-114 -z,-y+1/2,-x+1/2
-115 -x,-z+1/2,-y+1/2
-116 -y+3/4,-x+1/4,+z+1/2
-117 +z,-y+1/4,-x+1/4
-118 -x+3/4,+z+1/2,-y+1/4
-119 +z+3/4,-y,+x+3/4
-120 +x+1/4,+z+1/4,-y
-121 -x+1/2,+z+1/4,+y+3/4
-122 +y+1/4,-x,+z+1/4
-123 +z+3/4,+y+3/4,-x
-124 -y+1/2,+x+3/4,+z+1/4
201 +x+1/2,+y,+z+1/2
202 +z+1/2,+x,+y+1/2
203 +y+1/2,+z,+x+1/2
204 +x+3/4,+y+1/4,-z+1/2
205 -z+1/2,+x+1/4,+y+3/4
206 +y+3/4,-z,+x+3/4
207 -z+3/4,+x+1/2,-y+1/4
208 -y+1/4,-z+1/4,+x
209 +y,-z+1/4,-x+1/4
210 -x+1/4,+y+1/2,-z+3/4
211 -z+3/4,-x+3/4,+y
212 +x,-y+3/4,-z+3/4
213 +y+1/2,+x,+z+1/2
214 +z+1/2,+y,+x+1/2
215 +x+1/2,+z,+y+1/2
216 +y+3/4,+x+1/4,-z+1/2
217 -z+1/2,+y+1/4,+x+3/4
218 +x+3/4,-z,+y+3/4
219 -z+3/4,+y+1/2,-x+1/4
220 -x+1/4,-z+1/4,+y
221 +x,-z+1/4,-y+1/4
222 -y+1/4,+x+1/2,-z+3/4
223 -z+3/4,-y+3/4,+x
224 +y,-x+3/4,-z+3/4
-201 -x+1/2,-y,-z+1/2
-202 -z+1/2,-x,-y+1/2
-203 -y+1/2,-z,-x+1/2
-204 -x+1/4,-y+3/4,+z+1/2
-205 +z+1/2,-x+3/4,-y+1/4
-206 -y+1/4,+z,-x+1/4
-207 +z+1/4,-x+1/2,+y+3/4
-208 +y+3/4,+z+3/4,-x
-209 -y,+z+3/4,+x+3/4
-210 +x+3/4,-y+1/2,+z+1/4
-211 +z+1/4,+x+1/4,-y
-212 -x,+y+1/4,+z+1/4
-213 -y+1/2,-x,-z+1/2
-214 -z+1/2,-y,-x+1/2
-215 -x+1/2,-z,-y+1/2
-216 -y+1/4,-x+3/4,+z+1/2
-217 +z+1/2,-y+3/4,-x+1/4
-218 -x+1/4,+z,-y+1/4
-219 +z+1/4,-y+1/2,+x+3/4
-220 +x+3/4,+z+3/4,-y
-221 -x,+z+3/4,+y+3/4
-222 +y+3/4,-x+1/2,+z+1/4
-223 +z+1/4,+y+1/4,-x
-224 -y,+x+1/4,+z+1/4
301 +x+1/2,+y+1/2,+z
302 +z+1/2,+x+1/2,+y
303 +y+1/2,+z+1/2,+x
304 +x+3/4,+y+3/4,-z
305 -z+1/2,+x+3/4,+y+1/4
306 +y+3/4,-z+1/2,+x+1/4
307 -z+3/4,+x,-y+3/4
308 -y+1/4,-z+3/4,+x+1/2
309 +y,-z+3/4,-x+3/4
310 -x+1/4,+y,-z+1/4
311 -z+3/4,-x+1/4,+y+1/2
312 +x,-y+1/4,-z+1/4
313 +y+1/2,+x+1/2,+z
314 +z+1/2,+y+1/2,+x
315 +x+1/2,+z+1/2,+y
316 +y+3/4,+x+3/4,-z
317 -z+1/2,+y+3/4,+x+1/4
318 +x+3/4,-z+1/2,+y+1/4
319 -z+3/4,+y,-x+3/4
320 -x+1/4,-z+3/4,+y+1/2
321 +x,-z+3/4,-y+3/4
322 -y+1/4,+x,-z+1/4
323 -z+3/4,-y+1/4,+x+1/2
324 +y,-x+1/4,-z+1/4
-301 -x+1/2,-y+1/2,-z
-302 -z+1/2,-x+1/2,-y
-303 -y+1/2,-z+1/2,-x
-304 -x+1/4,-y+1/4,+z
-305 +z+1/2,-x+1/4,-y+3/4
-306 -y+1/4,+z+1/2,-x+3/4
-307 +z+1/4,-x,+y+1/4
-308 +y+3/4,+z+1/4,-x+1/2
-309 -y,+z+1/4,+x+1/4
-310 +x+3/4,-y,+z+3/4
-311 +z+1/4,+x+3/4,-y+1/2
-312 -x,+y+3/4,+z+3/4
-313 -y+1/2,-x+1/2,-z
-314 -z+1/2,-y+1/2,-x
-315 -x+1/2,-z+1/2,-y
-316 -y+1/4,-x+1/4,+z
-317 +z+1/2,-y+1/4,-x+3/4
-318 -x+1/4,+z+1/2,-y+3/4
-319 +z+1/4,-y,+x+1/4
-320 +x+3/4,+z+1/4,-y+1/2
-321 -x,+z+1/4,+y+1/4
-322 +y+3/4,-x,+z+3/4
-323 +z+1/4,+y+3/4,-x+1/2
-324 -y,+x+3/4,+z+3/4
loop_
_atom_site_type_symbol
_atom_site_label
_atom_site_fract_x
_atom_site_fract_y
_atom_site_fract_z
_atom_site_occupancy
_atom_site_thermal_displace_type
_atom_site_U_iso_or_equiv
_atom_site_symmetry_multiplicity
Y Y1 0.5 0.5 0.5 0.9883(28) Uiso 0.00751(9) 16
Ti Ti1 0.0 0.0 0.0 0.997(5) Uiso 0.00548(19) 16
O O1 0.329133(24) 0.125 0.125 1.0 Uiso 0.00710(5) 48
O O2 0.375 0.375 0.375 1.0 Uiso 0.00557(8) 8
loop_
_geom_angle_atom_site_label_1
_geom_angle_atom_site_label_2
_geom_angle_atom_site_label_3
_geom_angle
_geom_angle_site_symmetry_1
_geom_angle_site_symmetry_2
_geom_angle_site_symmetry_3
_geom_angle_publ_flag
? ? ? ? ? ? ? ?
loop_
_geom_bond_atom_site_label_1
_geom_bond_atom_site_label_2
_geom_bond_distance
_geom_bond_site_symmetry_1
_geom_bond_site_symmetry_2
_geom_bond_publ_flag
? ? ? ? ? ?
