#------------------------------------------------------------------------------
#$Date: 2016-03-26 17:01:19 +0200 (Sat, 26 Mar 2016) $
#$Revision: 180368 $
#$URL: svn://www.crystallography.net/cod/cif/7/20/37/7203767.cif $
#------------------------------------------------------------------------------
#
# This file is available in the Crystallography Open Database (COD),
# http://www.crystallography.net/
#
# All data on this site have been placed in the public domain by the
# contributors.
#
data_7203767
loop_
_publ_author_name
'Le\'on-Reina, Laura'
'Losilla, Enrique R.'
'Mart\'inez-Lara, Maria'
'Bruque, Sebasti\'an'
'Llobet, Anna'
'Sheptyakov, Denis V.'
'Aranda, Miguel A. G.'
_publ_section_title
;
 Interstitial oxygen in oxygen-stoichiometric apatites
;
_journal_issue                   25
_journal_name_full               'Journal of Materials Chemistry'
_journal_page_first              2489
_journal_paper_doi               10.1039/b503374h
_journal_volume                  15
_journal_year                    2005
_chemical_formula_sum            'La1.33 O4.33 Si Sr0.33'
_chemical_formula_weight         311.83
_chemical_name_systematic        ' ?'
_space_group_IT_number           176
_symmetry_cell_setting           hexagonal
_symmetry_space_group_name_Hall  '-P 6c'
_symmetry_space_group_name_H-M   'P 63/m'
_cell_angle_alpha                90.0
_cell_angle_beta                 90.0
_cell_angle_gamma                120.0
_cell_formula_units_Z            6
_cell_length_a                   9.7347(7)
_cell_length_b                   9.7347
_cell_length_c                   7.2531(6)
_cell_volume                     595.25(7)
_computing_structure_refinement  GSAS
_pd_block_id
2004-06-11T10:45|LA8SR2SI6_phase1|La8Sr2Si6O26_750K||
_pd_phase_name
'from C:/RIETVELD/Apatito/SINQ_02/La9.55Si/La955Si6_RT/LA955SI.EXP'
_pd_proc_ls_prof_R_factor        0.0190
_pd_proc_ls_prof_wR_factor       0.0275
_refine_ls_goodness_of_fit_all   1.11
_refine_ls_matrix_type           full
_refine_ls_number_parameters     59
_refine_ls_number_restraints     0
_refine_ls_shift/su_max          0.07
_refine_ls_shift/su_mean         0.00
_cod_data_source_file            b503374h.txt
_cod_data_source_block           LA8SR2SI6_overall
_cod_depositor_comments
;
The following automatic conversions were performed:
'_geom_angle_publ_flag' value 'N' changed to 'n' according to
'/home/saulius/struct/CIF-dictionaries/cif_core.dic' dictionary named
'cif_core.dic' version 2.4.1 from 2010-06-29 (817
times).

'_geom_bond_publ_flag' value 'N' changed to 'n' according to
'/home/saulius/struct/CIF-dictionaries/cif_core.dic' dictionary named
'cif_core.dic' version 2.4.1 from 2010-06-29 (180 times).

Automatic conversion script
Id: cif_fix_enum 1527 2010-12-29 10:47:43Z saulius 
;
_cod_original_cell_volume        595.25037
_cod_database_code               7203767
loop_
_symmetry_equiv_pos_site_id
_symmetry_equiv_pos_as_xyz
1 +x,+y,+z
2 x-y,+x,+z+1/2
3 -y,x-y,+z
4 -x,-y,+z+1/2
5 y-x,-x,+z
6 +y,y-x,+z+1/2
-1 -x,-y,-z
-2 y-x,-x,-z+1/2
-3 +y,y-x,-z
-4 +x,+y,-z+1/2
-5 x-y,+x,-z
-6 -y,x-y,-z+1/2
loop_
_atom_site_aniso_label
_atom_site_aniso_U_11
_atom_site_aniso_U_12
_atom_site_aniso_U_13
_atom_site_aniso_U_22
_atom_site_aniso_U_23
_atom_site_aniso_U_33
La1 0.0064(5) 0.0017(4) 0.0 0.0068(5) 0.0 0.0054(4)
La2 0.0139(4) 0.00697(22) 0.0 0.0139(4) 0.0 0.0083(6)
SI 0.0040(9) 0.0017(9) 0.0 0.0059(10) 0.0 0.0045(8)
O1 0.0226(9) 0.0163(8) 0.0 0.0153(10) 0.0 0.0105(7)
O2 0.0040(7) 0.0009(6) 0.0 0.0056(7) 0.0 0.0267(10)
O3 0.0302(8) 0.0139(6) -0.0103(5) 0.0148(6) -0.0061(4) 0.0076(4)
O4 0.0108(9) 0.0054(5) 0.0 0.0108(9) 0.0 0.0420(22)
Sr1 0.0064(5) 0.0017(4) 0.0 0.0068(5) 0.0 0.0054(4)
Sr2 0.0139(4) 0.00697(22) 0.0 0.0139(4) 0.0 0.0083(6)
loop_
_atom_site_type_symbol
_atom_site_label
_atom_site_fract_x
_atom_site_fract_y
_atom_site_fract_z
_atom_site_occupancy
_atom_site_thermal_displace_type
_atom_site_U_iso_or_equiv
_atom_site_symmetry_multiplicity
LA La1 0.23162(14) -0.01341(15) 0.25 0.8 Uani 0.00692 6
LA La2 0.3333 0.6667 -0.00026(20) 0.8 Uani 0.01206 4
SI SI 0.39992(24) 0.37009(22) 0.25 1.0 Uani 0.00517 6
O O1 0.32340(20) 0.48470(22) 0.25 1.0 Uani 0.01306 6
O O2 0.59321(17) 0.47134(21) 0.25 1.0 Uani 0.01274 6
O O3 0.34152(17) 0.25453(17) 0.07083(13) 1.0 Uani 0.0164 12
O O4 0.0 0.0 0.25 1.027(11) Uani 0.02117 2
SR Sr1 0.23162(14) -0.01341(15) 0.25 0.2 Uani 0.00692 6
SR Sr2 0.33333 0.66667 -0.00026(20) 0.2 Uani 0.01206 4
O O5 0.007 0.241 0.613 -0.0044(18) Uiso 0.03 12
loop_
_atom_type_symbol
_atom_type_number_in_cell
LA 8.0
SI 6.0
O 26.0
SR 2.0
loop_
_geom_angle_atom_site_label_1
_geom_angle_atom_site_label_2
_geom_angle_atom_site_label_3
_geom_angle
_geom_angle_site_symmetry_1
_geom_angle_site_symmetry_2
_geom_angle_site_symmetry_3
_geom_angle_publ_flag
O1 La1 O2 99.55(6) 5_555 . 3_655 n
O1 La1 O3 148.240(28) 5_555 . 1_555 n
O1 La1 O3 71.98(4) 5_555 . 6_555 n
O1 La1 O3 71.98(4) 5_555 . -3_555 n
O1 La1 O3 148.240(28) 5_555 . -4_556 n
O1 La1 O4 110.30(5) 5_555 . 1_555 n
O1 La1 Sr1 140.30(5) 5_555 . 3_555 n
O1 La1 Sr1 80.30(5) 5_555 . 5_555 n
O1 La1 O5 53.79(4) 5_555 . 4_554 n
O1 La1 O5 91.174(26) 5_555 . 5_555 n
O1 La1 O5 154.988(26) 5_555 . 6_554 n
O1 La1 O5 53.79(4) 5_555 . -1_556 n
O1 La1 O5 91.174(26) 5_555 . -2_556 n
O1 La1 O5 154.988(26) 5_555 . -3_556 n
O2 La1 O3 71.77(5) 3_655 . 1_555 n
O2 La1 O3 84.55(4) 3_655 . 6_555 n
O2 La1 O3 84.55(4) 3_655 . -3_555 n
O2 La1 O3 71.77(5) 3_655 . -4_556 n
O2 La1 O4 150.16(6) 3_655 . 1_555 n
O2 La1 Sr1 120.16(6) 3_655 . 3_555 n
O2 La1 Sr1 179.84550(20) 3_655 . 5_555 n
O2 La1 O5 142.05(4) 3_655 . 4_554 n
O2 La1 O5 89.621(25) 3_655 . 5_555 n
O2 La1 O5 90.95(5) 3_655 . 6_554 n
O2 La1 O5 142.05(4) 3_655 . -1_556 n
O2 La1 O5 89.621(25) 3_655 . -2_556 n
O2 La1 O5 90.95(5) 3_655 . -3_556 n
O3 La1 O3 134.72(6) 1_555 . 6_555 n
O3 La1 O3 76.741(26) 1_555 . -3_555 n
O3 La1 O3 59.56(5) 1_555 . -4_556 n
O3 La1 O4 82.44(4) 1_555 . 1_555 n
O3 La1 Sr1 57.12(4) 1_555 . 3_555 n
O3 La1 Sr1 108.37(4) 1_555 . 5_555 n
O3 La1 O5 115.16(4) 1_555 . 4_554 n
O3 La1 O5 118.59(5) 1_555 . 5_555 n
O3 La1 O5 21.016(29) 1_555 . 6_554 n
O3 La1 O5 145.42(5) 1_555 . -1_556 n
O3 La1 O5 59.032(25) 1_555 . -2_556 n
O3 La1 O5 56.731(34) 1_555 . -3_556 n
O3 La1 O3 139.87(8) 6_555 . -3_555 n
O3 La1 O3 76.741(26) 6_555 . -4_556 n
O3 La1 O4 104.27(4) 6_555 . 1_555 n
O3 La1 Sr1 109.44(4) 6_555 . 3_555 n
O3 La1 Sr1 95.40(5) 6_555 . 5_555 n
O3 La1 O5 107.32(5) 6_555 . 4_554 n
O3 La1 O5 21.054(31) 6_555 . 5_555 n
O3 La1 O5 132.02(5) 6_555 . 6_554 n
O3 La1 O5 62.91(4) 6_555 . -1_556 n
O3 La1 O5 160.90(6) 6_555 . -2_556 n
O3 La1 O5 86.646(33) 6_555 . -3_556 n
O3 La1 O3 134.72(6) -3_555 . -4_556 n
O3 La1 O4 104.27(4) -3_555 . 1_555 n
O3 La1 Sr1 109.44(4) -3_555 . 3_555 n
O3 La1 Sr1 95.40(5) -3_555 . 5_555 n
O3 La1 O5 62.91(4) -3_555 . 4_554 n
O3 La1 O5 160.90(6) -3_555 . 5_555 n
O3 La1 O5 86.646(33) -3_555 . 6_554 n
O3 La1 O5 107.32(5) -3_555 . -1_556 n
O3 La1 O5 21.054(31) -3_555 . -2_556 n
O3 La1 O5 132.02(5) -3_555 . -3_556 n
O3 La1 O4 82.44(4) -4_556 . 1_555 n
O3 La1 Sr1 57.12(4) -4_556 . 3_555 n
O3 La1 Sr1 108.37(4) -4_556 . 5_555 n
O3 La1 O5 145.42(5) -4_556 . 4_554 n
O3 La1 O5 59.032(25) -4_556 . 5_555 n
O3 La1 O5 56.731(34) -4_556 . 6_554 n
O3 La1 O5 115.16(4) -4_556 . -1_556 n
O3 La1 O5 118.59(5) -4_556 . -2_556 n
O3 La1 O5 21.016(29) -4_556 . -3_556 n
O4 La1 Sr1 30.0 1_555 . 3_555 n
O4 La1 Sr1 30.0 1_555 . 5_555 n
O4 La1 O5 63.133(28) 1_555 . 4_554 n
O4 La1 O5 89.768(23) 1_555 . 5_555 n
O4 La1 O5 61.767(26) 1_555 . 6_554 n
O4 La1 O5 63.133(28) 1_555 . -1_556 n
O4 La1 O5 89.768(23) 1_555 . -2_556 n
O4 La1 O5 61.767(26) 1_555 . -3_556 n
Sr1 La1 Sr1 60.0 3_555 . 5_555 n
Sr1 La1 O5 90.406(26) 3_555 . 4_554 n
Sr1 La1 O5 89.216(24) 3_555 . 5_555 n
Sr1 La1 O5 36.361(25) 3_555 . 6_554 n
Sr1 La1 O5 90.406(26) 3_555 . -1_556 n
Sr1 La1 O5 89.216(24) 3_555 . -2_556 n
Sr1 La1 O5 36.361(25) 3_555 . -3_556 n
Sr1 La1 O5 37.829(28) 5_555 . 4_554 n
Sr1 La1 O5 90.382(25) 5_555 . 5_555 n
Sr1 La1 O5 89.195(24) 5_555 . 6_554 n
Sr1 La1 O5 37.829(28) 5_555 . -1_556 n
Sr1 La1 O5 90.382(25) 5_555 . -2_556 n
Sr1 La1 O5 89.195(24) 5_555 . -3_556 n
O5 La1 O5 114.53(4) 4_554 . 5_555 n
O5 La1 O5 105.157(30) 4_554 . 6_554 n
O5 La1 O5 47.262(23) 4_554 . -1_556 n
O5 La1 O5 67.271(16) 4_554 . -2_556 n
O5 La1 O5 124.90(4) 4_554 . -3_556 n
O5 La1 O5 111.68(4) 5_555 . 6_554 n
O5 La1 O5 67.271(16) 5_555 . -1_556 n
O5 La1 O5 177.62(5) 5_555 . -2_556 n
O5 La1 O5 66.083(15) 5_555 . -3_556 n
O5 La1 O5 124.90(4) 6_554 . -1_556 n
O5 La1 O5 66.083(15) 6_554 . -2_556 n
O5 La1 O5 45.596(21) 6_554 . -3_556 n
O5 La1 O5 114.53(4) -1_556 . -2_556 n
O5 La1 O5 105.157(30) -1_556 . -3_556 n
O5 La1 O5 111.68(4) -2_556 . -3_556 n
La2 La2 La2 179.9604 -2_565 . -2_566 n
La2 La2 O1 136.44(4) -2_565 . 1_555 n
La2 La2 O1 136.45(4) -2_565 . 3_665 n
La2 La2 O1 136.48(4) -2_565 . 5_565 n
La2 La2 O2 44.99(4) -2_565 . 2_554 n
La2 La2 O2 44.98(4) -2_565 . 4_664 n
La2 La2 O2 44.98(4) -2_565 . 6_564 n
La2 La2 Sr2 89.9756 -2_565 . 1_555 n
La2 La2 Sr2 0.0 -2_565 . -2_565 n
La2 La2 Sr2 179.972 -2_565 . -2_566 n
La2 La2 O1 43.54(4) -2_566 . 1_555 n
La2 La2 O1 43.53(4) -2_566 . 3_665 n
La2 La2 O1 43.55(4) -2_566 . 5_565 n
La2 La2 O2 135.04(4) -2_566 . 2_554 n
La2 La2 O2 135.00(4) -2_566 . 4_664 n
La2 La2 O2 135.02(4) -2_566 . 6_564 n
La2 La2 Sr2 90.000(35) -2_566 . 1_555 n
La2 La2 Sr2 179.972 -2_566 . -2_565 n
La2 La2 Sr2 0.0 -2_566 . -2_566 n
O1 La2 O1 73.25(6) 1_555 . 3_665 n
O1 La2 O1 73.25(6) 1_555 . 5_565 n
O1 La2 O2 125.02(4) 1_555 . 2_554 n
O1 La2 O2 93.64(4) 1_555 . 4_664 n
O1 La2 O2 154.21(5) 1_555 . 6_564 n
O1 La2 Sr2 54.5831 1_555 . 1_555 n
O1 La2 Sr2 136.44(4) 1_555 . -2_565 n
O1 La2 Sr2 43.54(4) 1_555 . -2_566 n
O1 La2 O1 73.26(6) 3_665 . 5_565 n
O1 La2 O2 154.25(5) 3_665 . 2_554 n
O1 La2 O2 125.00(4) 3_665 . 4_664 n
O1 La2 O2 93.66(4) 3_665 . 6_564 n
O1 La2 Sr2 88.079(32) 3_665 . 1_555 n
O1 La2 Sr2 136.46(4) 3_665 . -2_565 n
O1 La2 Sr2 43.54(4) 3_665 . -2_566 n
O1 La2 O2 93.67(4) 5_565 . 2_554 n
O1 La2 O2 154.22(5) 5_565 . 4_664 n
O1 La2 O2 125.04(4) 5_565 . 6_564 n
O1 La2 Sr2 127.740(30) 5_565 . 1_555 n
O1 La2 Sr2 136.47(4) 5_565 . -2_565 n
O1 La2 Sr2 43.54(4) 5_565 . -2_566 n
O2 La2 O2 75.49(6) 2_554 . 4_664 n
O2 La2 O2 75.50(6) 2_554 . 6_564 n
O2 La2 Sr2 116.99(4) 2_554 . 1_555 n
O2 La2 Sr2 44.98(4) 2_554 . -2_565 n
O2 La2 Sr2 135.03(4) 2_554 . -2_566 n
O2 La2 O2 75.49(6) 4_664 . 6_564 n
O2 La2 Sr2 45.87(4) 4_664 . 1_555 n
O2 La2 Sr2 44.98(4) 4_664 . -2_565 n
O2 La2 Sr2 135.00(4) 4_664 . -2_566 n
O2 La2 Sr2 103.977(23) 6_564 . 1_555 n
O2 La2 Sr2 44.98(4) 6_564 . -2_565 n
O2 La2 Sr2 135.02(4) 6_564 . -2_566 n
Sr2 La2 Sr2 89.9956 1_555 . -2_565 n
Sr2 La2 Sr2 90.020(17) 1_555 . -2_566 n
Sr2 La2 Sr2 180.0 -2_565 . -2_566 n
O1 SI O2 111.86(15) 1_555 . 1_555 n
O1 SI O3 110.75(10) 1_555 . 1_555 n
O1 SI O3 110.75(10) 1_555 . -4_556 n
O1 SI Sr1 130.60(12) 1_555 . 1_555 n
O1 SI Sr1 55.05(9) 1_555 . 3_555 n
O1 SI Sr2 136.48(8) 1_555 . 2_655 n
O1 SI Sr2 136.48(8) 1_555 . -1_665 n
O1 SI O5 89.12(10) 1_555 . 6_554 n
O1 SI O5 89.12(10) 1_555 . -3_556 n
O2 SI O3 108.50(10) 1_555 . 1_555 n
O2 SI O3 108.50(10) 1_555 . -4_556 n
O2 SI Sr1 117.54(11) 1_555 . 1_555 n
O2 SI Sr1 166.91(12) 1_555 . 3_555 n
O2 SI Sr2 48.58(6) 1_555 . 2_655 n
O2 SI Sr2 48.58(6) 1_555 . -1_665 n
O2 SI O5 140.44(7) 1_555 . 6_554 n
O2 SI O5 140.44(7) 1_555 . -3_556 n
O3 SI O3 106.28(14) 1_555 . -4_556 n
O3 SI Sr1 53.27(7) 1_555 . 1_555 n
O3 SI Sr1 78.83(8) 1_555 . 3_555 n
O3 SI Sr2 112.50(10) 1_555 . 2_655 n
O3 SI Sr2 60.78(7) 1_555 . -1_665 n
O3 SI O5 32.20(6) 1_555 . 6_554 n
O3 SI O5 93.38(11) 1_555 . -3_556 n
O3 SI Sr1 53.27(7) -4_556 . 1_555 n
O3 SI Sr1 78.83(8) -4_556 . 3_555 n
O3 SI Sr2 60.78(7) -4_556 . 2_655 n
O3 SI Sr2 112.50(10) -4_556 . -1_665 n
O3 SI O5 93.38(11) -4_556 . 6_554 n
O3 SI O5 32.20(6) -4_556 . -3_556 n
Sr1 SI Sr1 75.55(5) 1_555 . 3_555 n
Sr1 SI Sr2 81.28(4) 1_555 . 2_655 n
Sr1 SI Sr2 81.28(4) 1_555 . -1_665 n
Sr1 SI O5 51.98(5) 1_555 . 6_554 n
Sr1 SI O5 51.98(5) 1_555 . -3_556 n
Sr1 SI Sr2 139.58(4) 3_555 . 2_655 n
Sr1 SI Sr2 139.58(4) 3_555 . -1_665 n
Sr1 SI O5 46.79(5) 3_555 . 6_554 n
Sr1 SI O5 46.79(5) 3_555 . -3_556 n
Sr2 SI Sr2 65.93(6) 2_655 . -1_665 n
Sr2 SI O5 131.83(9) 2_655 . 6_554 n
Sr2 SI O5 92.94(5) 2_655 . -3_556 n
Sr2 SI O5 92.94(5) -1_665 . 6_554 n
Sr2 SI O5 131.83(9) -1_665 . -3_556 n
O5 SI O5 68.89(7) 6_554 . -3_556 n
La1 O1 La2 103.82(5) 3_555 . 1_555 n
La1 O1 La2 103.83(5) 3_555 . -2_566 n
La1 O1 SI 95.93(11) 3_555 . 1_555 n
La1 O1 Sr1 0.0 3_555 . 3_555 n
La1 O1 Sr2 103.82(5) 3_555 . 1_555 n
La1 O1 Sr2 103.82(5) 3_555 . -2_566 n
La2 O1 La2 92.91(7) 1_555 . -2_566 n
La2 O1 SI 128.18(5) 1_555 . 1_555 n
La2 O1 Sr1 103.82(5) 1_555 . 3_555 n
La2 O1 Sr2 0.0 1_555 . 1_555 n
La2 O1 Sr2 92.91(7) 1_555 . -2_566 n
La2 O1 SI 128.16(5) -2_566 . 1_555 n
La2 O1 Sr1 103.83(5) -2_566 . 3_555 n
La2 O1 Sr2 92.92(7) -2_566 . 1_555 n
La2 O1 Sr2 0.0 -2_566 . -2_566 n
SI O1 Sr1 95.93(11) 1_555 . 3_555 n
SI O1 Sr2 128.17(5) 1_555 . 1_555 n
SI O1 Sr2 128.17(5) 1_555 . -2_566 n
Sr1 O1 Sr2 103.82(5) 3_555 . 1_555 n
Sr1 O1 Sr2 103.82(5) 3_555 . -2_566 n
Sr2 O1 Sr2 92.92(7) 1_555 . -2_566 n
La1 O2 La2 115.22(5) 5_665 . 2_655 n
La1 O2 La2 115.21(5) 5_665 . -1_665 n
La1 O2 SI 124.52(12) 5_665 . 1_555 n
La1 O2 Sr1 0.0 5_665 . 5_665 n
La1 O2 Sr2 115.21(5) 5_665 . 2_655 n
La1 O2 Sr2 115.21(5) 5_665 . -1_665 n
La2 O2 La2 90.03(8) 2_655 . -1_665 n
La2 O2 SI 102.90(7) 2_655 . 1_555 n
La2 O2 Sr1 115.22(5) 2_655 . 5_665 n
La2 O2 Sr2 0.0 2_655 . 2_655 n
La2 O2 Sr2 90.04(8) 2_655 . -1_665 n
La2 O2 SI 102.91(7) -1_665 . 1_555 n
La2 O2 Sr1 115.21(5) -1_665 . 5_665 n
La2 O2 Sr2 90.03(8) -1_665 . 2_655 n
La2 O2 Sr2 0.0 -1_665 . -1_665 n
SI O2 Sr1 124.52(12) 1_555 . 5_665 n
SI O2 Sr2 102.91(7) 1_555 . 2_655 n
SI O2 Sr2 102.91(7) 1_555 . -1_665 n
Sr1 O2 Sr2 115.21(5) 5_665 . 2_655 n
Sr1 O2 Sr2 115.21(5) 5_665 . -1_665 n
Sr2 O2 Sr2 90.04(8) 2_655 . -1_665 n
La1 O3 La1 115.41(7) 1_555 . 2_554 n
La1 O3 SI 96.90(7) 1_555 . 1_555 n
La1 O3 Sr1 0.0 1_555 . 1_555 n
La1 O3 Sr1 115.41(7) 1_555 . 2_554 n
La1 O3 Sr2 101.49(4) 1_555 . -1_665 n
La1 O3 O5 76.39(8) 1_555 . 6_554 n
La1 O3 SI 143.09(9) 2_554 . 1_555 n
La1 O3 Sr1 115.41(7) 2_554 . 1_555 n
La1 O3 Sr1 0.0 2_554 . 2_554 n
La1 O3 Sr2 99.92(5) 2_554 . -1_665 n
La1 O3 O5 88.80(7) 2_554 . 6_554 n
SI O3 Sr1 96.90(7) 1_555 . 1_555 n
SI O3 Sr1 143.09(9) 1_555 . 2_554 n
SI O3 Sr2 90.01(9) 1_555 . -1_665 n
SI O3 O5 81.64(10) 1_555 . 6_554 n
Sr1 O3 Sr1 115.41(7) 1_555 . 2_554 n
Sr1 O3 Sr2 101.49(4) 1_555 . -1_665 n
Sr1 O3 O5 76.39(8) 1_555 . 6_554 n
Sr1 O3 Sr2 99.92(5) 2_554 . -1_665 n
Sr1 O3 O5 88.80(7) 2_554 . 6_554 n
Sr2 O3 O5 171.01(8) -1_665 . 6_554 n
La1 O4 La1 120.0 1_555 . 3_555 n
La1 O4 La1 120.0 1_555 . 5_555 n
La1 O4 Sr1 0.0 1_555 . 1_555 n
La1 O4 Sr1 120.0 1_555 . 3_555 n
La1 O4 Sr1 120.0 1_555 . 5_555 n
La1 O4 La1 120.0 3_555 . 5_555 n
La1 O4 Sr1 120.0 3_555 . 1_555 n
La1 O4 Sr1 0.0 3_555 . 3_555 n
La1 O4 Sr1 120.0 3_555 . 5_555 n
La1 O4 Sr1 120.0 5_555 . 1_555 n
La1 O4 Sr1 120.0 5_555 . 3_555 n
La1 O4 Sr1 0.0 5_555 . 5_555 n
Sr1 O4 Sr1 120.0 1_555 . 3_555 n
Sr1 O4 Sr1 120.0 1_555 . 5_555 n
Sr1 O4 Sr1 120.0 3_555 . 5_555 n
La1 Sr1 La1 60.0 3_555 . 5_555 n
La1 Sr1 SI 53.17(5) 3_555 . 1_555 n
La1 Sr1 SI 111.27(5) 3_555 . 5_555 n
La1 Sr1 O1 140.30(5) 3_555 . 5_555 n
La1 Sr1 O2 120.16(6) 3_555 . 3_655 n
La1 Sr1 O3 57.12(4) 3_555 . 1_555 n
La1 Sr1 O3 109.44(4) 3_555 . 6_555 n
La1 Sr1 O3 109.44(4) 3_555 . -3_555 n
La1 Sr1 O3 57.12(4) 3_555 . -4_556 n
La1 Sr1 O4 30.0 3_555 . 1_555 n
La1 Sr1 Sr1 0.0 3_555 . 3_555 n
La1 Sr1 Sr1 60.0 3_555 . 5_555 n
La1 Sr1 Sr2 150.709(23) 3_555 . 1_545 n
La1 Sr1 Sr2 97.50(4) 3_555 . 2_655 n
La1 Sr1 Sr2 97.50(4) 3_555 . -1_665 n
La1 Sr1 Sr2 150.709(23) 3_555 . -2_556 n
La1 Sr1 O5 90.406(26) 3_555 . 4_554 n
La1 Sr1 O5 89.216(24) 3_555 . 5_555 n
La1 Sr1 O5 36.361(25) 3_555 . 6_554 n
La1 Sr1 O5 90.406(26) 3_555 . -1_556 n
La1 Sr1 O5 89.216(24) 3_555 . -2_556 n
La1 Sr1 O5 36.361(25) 3_555 . -3_556 n
La1 Sr1 SI 113.17(5) 5_555 . 1_555 n
La1 Sr1 SI 51.27(5) 5_555 . 5_555 n
La1 Sr1 O1 80.30(5) 5_555 . 5_555 n
La1 Sr1 O2 179.84550(20) 5_555 . 3_655 n
La1 Sr1 O3 108.37(4) 5_555 . 1_555 n
La1 Sr1 O3 95.40(5) 5_555 . 6_555 n
La1 Sr1 O3 95.40(5) 5_555 . -3_555 n
La1 Sr1 O3 108.37(4) 5_555 . -4_556 n
La1 Sr1 O4 30.0 5_555 . 1_555 n
La1 Sr1 Sr1 60.0 5_555 . 3_555 n
La1 Sr1 Sr1 0.0 5_555 . 5_555 n
La1 Sr1 Sr2 104.47(4) 5_555 . 1_545 n
La1 Sr1 Sr2 147.318(26) 5_555 . 2_655 n
La1 Sr1 Sr2 147.318(26) 5_555 . -1_665 n
La1 Sr1 Sr2 104.47(4) 5_555 . -2_556 n
La1 Sr1 O5 37.829(28) 5_555 . 4_554 n
La1 Sr1 O5 90.382(25) 5_555 . 5_555 n
La1 Sr1 O5 89.195(24) 5_555 . 6_554 n
La1 Sr1 O5 37.829(28) 5_555 . -1_556 n
La1 Sr1 O5 90.382(25) 5_555 . -2_556 n
La1 Sr1 O5 89.195(24) 5_555 . -3_556 n
SI Sr1 SI 164.45(5) 1_555 . 5_555 n
SI Sr1 O1 166.53(6) 1_555 . 5_555 n
SI Sr1 O2 66.98(6) 1_555 . 3_655 n
SI Sr1 O3 29.834(27) 1_555 . 1_555 n
SI Sr1 O3 105.44(4) 1_555 . 6_555 n
SI Sr1 O3 105.44(4) 1_555 . -3_555 n
SI Sr1 O3 29.834(27) 1_555 . -4_556 n
SI Sr1 O4 83.17(5) 1_555 . 1_555 n
SI Sr1 Sr1 53.17(5) 1_555 . 3_555 n
SI Sr1 Sr1 113.17(5) 1_555 . 5_555 n
SI Sr1 Sr2 134.02(4) 1_555 . 1_545 n
SI Sr1 Sr2 50.250(34) 1_555 . 2_655 n
SI Sr1 Sr2 50.250(34) 1_555 . -1_665 n
SI Sr1 Sr2 134.01(4) 1_555 . -2_556 n
SI Sr1 O5 137.52(4) 1_555 . 4_554 n
SI Sr1 O5 88.815(27) 1_555 . 5_555 n
SI Sr1 O5 32.660(29) 1_555 . 6_554 n
SI Sr1 O5 137.52(4) 1_555 . -1_556 n
SI Sr1 O5 88.815(27) 1_555 . -2_556 n
SI Sr1 O5 32.660(29) 1_555 . -3_556 n
SI Sr1 O1 29.02(5) 5_555 . 5_555 n
SI Sr1 O2 128.57(6) 5_555 . 3_655 n
SI Sr1 O3 145.90(4) 5_555 . 1_555 n
SI Sr1 O3 78.55(4) 5_555 . 6_555 n
SI Sr1 O3 78.55(4) 5_555 . -3_555 n
SI Sr1 O3 145.90(4) 5_555 . -4_556 n
SI Sr1 O4 81.27(5) 5_555 . 1_555 n
SI Sr1 Sr1 111.27(5) 5_555 . 3_555 n
SI Sr1 Sr1 51.27(5) 5_555 . 5_555 n
SI Sr1 Sr2 58.885(33) 5_555 . 1_545 n
SI Sr1 Sr2 142.01(4) 5_555 . 2_655 n
SI Sr1 Sr2 142.01(4) 5_555 . -1_665 n
SI Sr1 Sr2 58.886(33) 5_555 . -2_556 n
SI Sr1 O5 31.100(25) 5_555 . 4_554 n
SI Sr1 O5 91.117(27) 5_555 . 5_555 n
SI Sr1 O5 135.26(5) 5_555 . 6_554 n
SI Sr1 O5 31.100(25) 5_555 . -1_556 n
SI Sr1 O5 91.117(27) 5_555 . -2_556 n
SI Sr1 O5 135.26(5) 5_555 . -3_556 n
O1 Sr1 O2 99.55(6) 5_555 . 3_655 n
O1 Sr1 O3 148.240(28) 5_555 . 1_555 n
O1 Sr1 O3 71.98(4) 5_555 . 6_555 n
O1 Sr1 O3 71.98(4) 5_555 . -3_555 n
O1 Sr1 O3 148.240(28) 5_555 . -4_556 n
O1 Sr1 O4 110.30(5) 5_555 . 1_555 n
O1 Sr1 Sr1 140.30(5) 5_555 . 3_555 n
O1 Sr1 Sr1 80.30(5) 5_555 . 5_555 n
O1 Sr1 Sr2 36.068(26) 5_555 . 1_545 n
O1 Sr1 Sr2 118.19(4) 5_555 . 2_655 n
O1 Sr1 Sr2 118.19(4) 5_555 . -1_665 n
O1 Sr1 Sr2 36.068(26) 5_555 . -2_556 n
O1 Sr1 O5 53.79(4) 5_555 . 4_554 n
O1 Sr1 O5 91.174(26) 5_555 . 5_555 n
O1 Sr1 O5 154.988(26) 5_555 . 6_554 n
O1 Sr1 O5 53.79(4) 5_555 . -1_556 n
O1 Sr1 O5 91.174(26) 5_555 . -2_556 n
O1 Sr1 O5 154.988(26) 5_555 . -3_556 n
O2 Sr1 O3 71.77(5) 3_655 . 1_555 n
O2 Sr1 O3 84.55(4) 3_655 . 6_555 n
O2 Sr1 O3 84.55(4) 3_655 . -3_555 n
O2 Sr1 O3 71.77(5) 3_655 . -4_556 n
O2 Sr1 O4 150.16(6) 3_655 . 1_555 n
O2 Sr1 Sr1 120.16(6) 3_655 . 3_555 n
O2 Sr1 Sr1 179.84550(20) 3_655 . 5_555 n
O2 Sr1 Sr2 75.39(4) 3_655 . 1_545 n
O2 Sr1 Sr2 32.780(28) 3_655 . 2_655 n
O2 Sr1 Sr2 32.779(28) 3_655 . -1_665 n
O2 Sr1 Sr2 75.39(4) 3_655 . -2_556 n
O2 Sr1 O5 142.05(4) 3_655 . 4_554 n
O2 Sr1 O5 89.621(25) 3_655 . 5_555 n
O2 Sr1 O5 90.95(5) 3_655 . 6_554 n
O2 Sr1 O5 142.05(4) 3_655 . -1_556 n
O2 Sr1 O5 89.621(25) 3_655 . -2_556 n
O2 Sr1 O5 90.95(5) 3_655 . -3_556 n
O3 Sr1 O3 134.72(6) 1_555 . 6_555 n
O3 Sr1 O3 76.741(26) 1_555 . -3_555 n
O3 Sr1 O3 59.56(5) 1_555 . -4_556 n
O3 Sr1 O4 82.44(4) 1_555 . 1_555 n
O3 Sr1 Sr1 57.12(4) 1_555 . 3_555 n
O3 Sr1 Sr1 108.37(4) 1_555 . 5_555 n
O3 Sr1 Sr2 113.623(32) 1_555 . 1_545 n
O3 Sr1 Sr2 70.97(4) 1_555 . 2_655 n
O3 Sr1 Sr2 41.704(33) 1_555 . -1_665 n
O3 Sr1 Sr2 146.85(5) 1_555 . -2_556 n
O3 Sr1 O5 115.16(4) 1_555 . 4_554 n
O3 Sr1 O5 118.59(5) 1_555 . 5_555 n
O3 Sr1 O5 21.016(29) 1_555 . 6_554 n
O3 Sr1 O5 145.42(5) 1_555 . -1_556 n
O3 Sr1 O5 59.032(25) 1_555 . -2_556 n
O3 Sr1 O5 56.731(34) 1_555 . -3_556 n
O3 Sr1 O3 139.87(8) 6_555 . -3_555 n
O3 Sr1 O3 76.741(26) 6_555 . -4_556 n
O3 Sr1 O4 104.27(4) 6_555 . 1_555 n
O3 Sr1 Sr1 109.44(4) 6_555 . 3_555 n
O3 Sr1 Sr1 95.40(5) 6_555 . 5_555 n
O3 Sr1 Sr2 96.01(5) 6_555 . 1_545 n
O3 Sr1 Sr2 68.52(4) 6_555 . 2_655 n
O3 Sr1 Sr2 115.40(5) 6_555 . -1_665 n
O3 Sr1 Sr2 43.86(4) 6_555 . -2_556 n
O3 Sr1 O5 107.32(5) 6_555 . 4_554 n
O3 Sr1 O5 21.054(31) 6_555 . 5_555 n
O3 Sr1 O5 132.02(5) 6_555 . 6_554 n
O3 Sr1 O5 62.91(4) 6_555 . -1_556 n
O3 Sr1 O5 160.90(6) 6_555 . -2_556 n
O3 Sr1 O5 86.646(33) 6_555 . -3_556 n
O3 Sr1 O3 134.72(6) -3_555 . -4_556 n
O3 Sr1 O4 104.27(4) -3_555 . 1_555 n
O3 Sr1 Sr1 109.44(4) -3_555 . 3_555 n
O3 Sr1 Sr1 95.40(5) -3_555 . 5_555 n
O3 Sr1 Sr2 43.86(4) -3_555 . 1_545 n
O3 Sr1 Sr2 115.40(5) -3_555 . 2_655 n
O3 Sr1 Sr2 68.52(4) -3_555 . -1_665 n
O3 Sr1 Sr2 96.01(5) -3_555 . -2_556 n
O3 Sr1 O5 62.91(4) -3_555 . 4_554 n
O3 Sr1 O5 160.90(6) -3_555 . 5_555 n
O3 Sr1 O5 86.646(33) -3_555 . 6_554 n
O3 Sr1 O5 107.32(5) -3_555 . -1_556 n
O3 Sr1 O5 21.054(31) -3_555 . -2_556 n
O3 Sr1 O5 132.02(5) -3_555 . -3_556 n
O3 Sr1 O4 82.44(4) -4_556 . 1_555 n
O3 Sr1 Sr1 57.12(4) -4_556 . 3_555 n
O3 Sr1 Sr1 108.37(4) -4_556 . 5_555 n
O3 Sr1 Sr2 146.86(5) -4_556 . 1_545 n
O3 Sr1 Sr2 41.704(33) -4_556 . 2_655 n
O3 Sr1 Sr2 70.97(4) -4_556 . -1_665 n
O3 Sr1 Sr2 113.623(32) -4_556 . -2_556 n
O3 Sr1 O5 145.42(5) -4_556 . 4_554 n
O3 Sr1 O5 59.032(25) -4_556 . 5_555 n
O3 Sr1 O5 56.731(34) -4_556 . 6_554 n
O3 Sr1 O5 115.16(4) -4_556 . -1_556 n
O3 Sr1 O5 118.59(5) -4_556 . -2_556 n
O3 Sr1 O5 21.016(29) -4_556 . -3_556 n
O4 Sr1 Sr1 30.0 1_555 . 3_555 n
O4 Sr1 Sr1 30.0 1_555 . 5_555 n
O4 Sr1 Sr2 130.38(4) 1_555 . 1_545 n
O4 Sr1 Sr2 124.14(4) 1_555 . 2_655 n
O4 Sr1 Sr2 124.14(4) 1_555 . -1_665 n
O4 Sr1 Sr2 130.38(4) 1_555 . -2_556 n
O4 Sr1 O5 63.133(28) 1_555 . 4_554 n
O4 Sr1 O5 89.768(23) 1_555 . 5_555 n
O4 Sr1 O5 61.767(26) 1_555 . 6_554 n
O4 Sr1 O5 63.133(28) 1_555 . -1_556 n
O4 Sr1 O5 89.768(23) 1_555 . -2_556 n
O4 Sr1 O5 61.767(26) 1_555 . -3_556 n
Sr1 Sr1 Sr1 60.0 3_555 . 5_555 n
Sr1 Sr1 Sr2 150.709(23) 3_555 . 1_545 n
Sr1 Sr1 Sr2 97.50(4) 3_555 . 2_655 n
Sr1 Sr1 Sr2 97.50(4) 3_555 . -1_665 n
Sr1 Sr1 Sr2 150.709(23) 3_555 . -2_556 n
Sr1 Sr1 O5 90.406(26) 3_555 . 4_554 n
Sr1 Sr1 O5 89.216(24) 3_555 . 5_555 n
Sr1 Sr1 O5 36.361(25) 3_555 . 6_554 n
Sr1 Sr1 O5 90.406(26) 3_555 . -1_556 n
Sr1 Sr1 O5 89.216(24) 3_555 . -2_556 n
Sr1 Sr1 O5 36.361(25) 3_555 . -3_556 n
Sr1 Sr1 Sr2 104.47(4) 5_555 . 1_545 n
Sr1 Sr1 Sr2 147.318(26) 5_555 . 2_655 n
Sr1 Sr1 Sr2 147.318(26) 5_555 . -1_665 n
Sr1 Sr1 Sr2 104.47(4) 5_555 . -2_556 n
Sr1 Sr1 O5 37.829(28) 5_555 . 4_554 n
Sr1 Sr1 O5 90.382(25) 5_555 . 5_555 n
Sr1 Sr1 O5 89.195(24) 5_555 . 6_554 n
Sr1 Sr1 O5 37.829(28) 5_555 . -1_556 n
Sr1 Sr1 O5 90.382(25) 5_555 . -2_556 n
Sr1 Sr1 O5 89.195(24) 5_555 . -3_556 n
Sr2 Sr1 Sr2 105.365(24) 1_545 . 2_655 n
Sr2 Sr1 Sr2 83.853(16) 1_545 . -1_665 n
Sr2 Sr1 Sr2 52.14(4) 1_545 . -2_556 n
Sr2 Sr1 O5 67.711(23) 1_545 . 4_554 n
Sr2 Sr1 O5 117.04(4) 1_545 . 5_555 n
Sr2 Sr1 O5 128.940(22) 1_545 . 6_554 n
Sr2 Sr1 O5 88.456(34) 1_545 . -1_556 n
Sr2 Sr1 O5 64.906(25) 1_545 . -2_556 n
Sr2 Sr1 O5 165.72(4) 1_545 . -3_556 n
Sr2 Sr1 Sr2 50.08(4) 2_655 . -1_665 n
Sr2 Sr1 Sr2 83.853(16) 2_655 . -2_556 n
Sr2 Sr1 O5 171.93(4) 2_655 . 4_554 n
Sr2 Sr1 O5 64.191(25) 2_655 . 5_555 n
Sr2 Sr1 O5 82.343(32) 2_655 . 6_554 n
Sr2 Sr1 O5 130.600(20) 2_655 . -1_556 n
Sr2 Sr1 O5 114.27(4) 2_655 . -2_556 n
Sr2 Sr1 O5 62.532(22) 2_655 . -3_556 n
Sr2 Sr1 Sr2 105.365(24) -1_665 . -2_556 n
Sr2 Sr1 O5 130.600(20) -1_665 . 4_554 n
Sr2 Sr1 O5 114.27(4) -1_665 . 5_555 n
Sr2 Sr1 O5 62.532(22) -1_665 . 6_554 n
Sr2 Sr1 O5 171.93(4) -1_665 . -1_556 n
Sr2 Sr1 O5 64.191(25) -1_665 . -2_556 n
Sr2 Sr1 O5 82.343(32) -1_665 . -3_556 n
Sr2 Sr1 O5 88.456(34) -2_556 . 4_554 n
Sr2 Sr1 O5 64.906(25) -2_556 . 5_555 n
Sr2 Sr1 O5 165.72(4) -2_556 . 6_554 n
Sr2 Sr1 O5 67.711(23) -2_556 . -1_556 n
Sr2 Sr1 O5 117.04(4) -2_556 . -2_556 n
Sr2 Sr1 O5 128.940(22) -2_556 . -3_556 n
O5 Sr1 O5 114.53(4) 4_554 . 5_555 n
O5 Sr1 O5 105.157(30) 4_554 . 6_554 n
O5 Sr1 O5 47.262(23) 4_554 . -1_556 n
O5 Sr1 O5 67.271(16) 4_554 . -2_556 n
O5 Sr1 O5 124.90(4) 4_554 . -3_556 n
O5 Sr1 O5 111.68(4) 5_555 . 6_554 n
O5 Sr1 O5 67.271(16) 5_555 . -1_556 n
O5 Sr1 O5 177.62(5) 5_555 . -2_556 n
O5 Sr1 O5 66.083(15) 5_555 . -3_556 n
O5 Sr1 O5 124.90(4) 6_554 . -1_556 n
O5 Sr1 O5 66.083(15) 6_554 . -2_556 n
O5 Sr1 O5 45.596(21) 6_554 . -3_556 n
O5 Sr1 O5 114.53(4) -1_556 . -2_556 n
O5 Sr1 O5 105.157(30) -1_556 . -3_556 n
O5 Sr1 O5 111.68(4) -2_556 . -3_556 n
La2 Sr2 La2 90.009(25) 1_555 . -2_565 n
La2 Sr2 La2 90.0336 1_555 . -2_566 n
La2 Sr2 SI 84.67(4) 1_555 . 2_554 n
La2 Sr2 SI 140.22(4) 1_555 . 4_664 n
La2 Sr2 SI 47.49(5) 1_555 . 6_564 n
La2 Sr2 O1 125.417(32) 1_555 . 1_555 n
La2 Sr2 O1 91.91(4) 1_555 . 3_665 n
La2 Sr2 O1 52.22(4) 1_555 . 5_565 n
La2 Sr2 O2 62.98(4) 1_555 . 2_554 n
La2 Sr2 O2 134.109(32) 1_555 . 4_664 n
La2 Sr2 O2 76.00(4) 1_555 . 6_564 n
La2 Sr2 O3 135.627(27) 1_555 . -1_665 n
La2 Sr2 O3 19.231(25) 1_555 . -3_565 n
La2 Sr2 O3 103.230(26) 1_555 . -5_555 n
La2 Sr2 Sr1 30.670(19) 1_555 . 1_565 n
La2 Sr2 Sr1 133.088(19) 1_555 . 2_554 n
La2 Sr2 Sr1 102.028(22) 1_555 . 3_555 n
La2 Sr2 Sr1 100.009(14) 1_555 . 4_664 n
La2 Sr2 Sr1 130.804(20) 1_555 . 5_665 n
La2 Sr2 Sr1 31.020(34) 1_555 . 6_564 n
La2 Sr2 Sr2 90.0001 1_555 . -2_565 n
La2 Sr2 Sr2 90.0247 1_555 . -2_566 n
La2 Sr2 La2 180.0 -2_565 . -2_566 n
La2 Sr2 SI 57.041(29) -2_565 . 2_554 n
La2 Sr2 SI 57.025(29) -2_565 . 4_664 n
La2 Sr2 SI 57.032(29) -2_565 . 6_564 n
La2 Sr2 O1 136.46(4) -2_565 . 1_555 n
La2 Sr2 O1 136.45(4) -2_565 . 3_665 n
La2 Sr2 O1 136.47(4) -2_565 . 5_565 n
La2 Sr2 O2 44.99(4) -2_565 . 2_554 n
La2 Sr2 O2 44.98(4) -2_565 . 4_664 n
La2 Sr2 O2 44.98(4) -2_565 . 6_564 n
La2 Sr2 O3 79.844(33) -2_565 . -1_665 n
La2 Sr2 O3 79.855(33) -2_565 . -3_565 n
La2 Sr2 O3 79.859(33) -2_565 . -5_555 n
La2 Sr2 Sr1 116.074(20) -2_565 . 1_565 n
La2 Sr2 Sr1 64.961(20) -2_565 . 2_554 n
La2 Sr2 Sr1 116.078(20) -2_565 . 3_555 n
La2 Sr2 Sr1 64.951(20) -2_565 . 4_664 n
La2 Sr2 Sr1 116.063(20) -2_565 . 5_665 n
La2 Sr2 Sr1 64.966(20) -2_565 . 6_564 n
La2 Sr2 Sr2 0.0 -2_565 . -2_565 n
La2 Sr2 Sr2 180.0 -2_565 . -2_566 n
La2 Sr2 SI 122.976(29) -2_566 . 2_554 n
La2 Sr2 SI 122.960(29) -2_566 . 4_664 n
La2 Sr2 SI 122.967(29) -2_566 . 6_564 n
La2 Sr2 O1 43.54(4) -2_566 . 1_555 n
La2 Sr2 O1 43.53(4) -2_566 . 3_665 n
La2 Sr2 O1 43.55(4) -2_566 . 5_565 n
La2 Sr2 O2 135.03(4) -2_566 . 2_554 n
La2 Sr2 O2 135.02(4) -2_566 . 4_664 n
La2 Sr2 O2 135.01(4) -2_566 . 6_564 n
La2 Sr2 O3 100.139(33) -2_566 . -1_665 n
La2 Sr2 O3 100.150(33) -2_566 . -3_565 n
La2 Sr2 O3 100.154(33) -2_566 . -5_555 n
La2 Sr2 Sr1 63.931(20) -2_566 . 1_565 n
La2 Sr2 Sr1 115.043(20) -2_566 . 2_554 n
La2 Sr2 Sr1 63.935(20) -2_566 . 3_555 n
La2 Sr2 Sr1 115.033(20) -2_566 . 4_664 n
La2 Sr2 Sr1 63.920(20) -2_566 . 5_665 n
La2 Sr2 Sr1 115.048(20) -2_566 . 6_564 n
La2 Sr2 Sr2 180.0 -2_566 . -2_565 n
La2 Sr2 Sr2 0.0 -2_566 . -2_566 n
SI Sr2 SI 93.20(4) 2_554 . 4_664 n
SI Sr2 SI 93.20(4) 2_554 . 6_564 n
SI Sr2 O1 97.89(5) 2_554 . 1_555 n
SI Sr2 O1 166.23(5) 2_554 . 3_665 n
SI Sr2 O1 94.29(4) 2_554 . 5_565 n
SI Sr2 O2 28.51(4) 2_554 . 2_554 n
SI Sr2 O2 65.01(5) 2_554 . 4_664 n
SI Sr2 O2 98.42(6) 2_554 . 6_564 n
SI Sr2 O3 122.34(5) 2_554 . -1_665 n
SI Sr2 O3 92.89(4) 2_554 . -3_565 n
SI Sr2 O3 29.204(34) 2_554 . -5_555 n
SI Sr2 Sr1 111.93(4) 2_554 . 1_565 n
SI Sr2 Sr1 48.47(4) 2_554 . 2_554 n
SI Sr2 Sr1 61.953(24) 2_554 . 3_555 n
SI Sr2 Sr1 121.82(5) 2_554 . 4_664 n
SI Sr2 Sr1 144.51(4) 2_554 . 5_665 n
SI Sr2 Sr1 56.28(4) 2_554 . 6_564 n
SI Sr2 Sr2 57.033(29) 2_554 . -2_565 n
SI Sr2 Sr2 122.968(29) 2_554 . -2_566 n
SI Sr2 SI 93.20(4) 4_664 . 6_564 n
SI Sr2 O1 94.29(4) 4_664 . 1_555 n
SI Sr2 O1 97.89(5) 4_664 . 3_665 n
SI Sr2 O1 166.23(5) 4_664 . 5_565 n
SI Sr2 O2 98.42(6) 4_664 . 2_554 n
SI Sr2 O2 28.51(4) 4_664 . 4_664 n
SI Sr2 O2 65.01(5) 4_664 . 6_564 n
SI Sr2 O3 29.204(34) 4_664 . -1_665 n
SI Sr2 O3 122.34(5) 4_664 . -3_565 n
SI Sr2 O3 92.89(4) 4_664 . -5_555 n
SI Sr2 Sr1 144.51(4) 4_664 . 1_565 n
SI Sr2 Sr1 56.28(4) 4_664 . 2_554 n
SI Sr2 Sr1 111.93(4) 4_664 . 3_555 n
SI Sr2 Sr1 48.47(4) 4_664 . 4_664 n
SI Sr2 Sr1 61.953(24) 4_664 . 5_665 n
SI Sr2 Sr1 121.82(5) 4_664 . 6_564 n
SI Sr2 Sr2 57.032(29) 4_664 . -2_565 n
SI Sr2 Sr2 122.967(29) 4_664 . -2_566 n
SI Sr2 O1 166.23(5) 6_564 . 1_555 n
SI Sr2 O1 94.29(4) 6_564 . 3_665 n
SI Sr2 O1 97.89(5) 6_564 . 5_565 n
SI Sr2 O2 65.01(5) 6_564 . 2_554 n
SI Sr2 O2 98.42(6) 6_564 . 4_664 n
SI Sr2 O2 28.51(4) 6_564 . 6_564 n
SI Sr2 O3 92.89(4) 6_564 . -1_665 n
SI Sr2 O3 29.204(34) 6_564 . -3_565 n
SI Sr2 O3 122.34(5) 6_564 . -5_555 n
SI Sr2 Sr1 61.953(24) 6_564 . 1_565 n
SI Sr2 Sr1 121.82(5) 6_564 . 2_554 n
SI Sr2 Sr1 144.51(4) 6_564 . 3_555 n
SI Sr2 Sr1 56.28(4) 6_564 . 4_664 n
SI Sr2 Sr1 111.93(4) 6_564 . 5_665 n
SI Sr2 Sr1 48.47(4) 6_564 . 6_564 n
SI Sr2 Sr2 57.033(29) 6_564 . -2_565 n
SI Sr2 Sr2 122.968(29) 6_564 . -2_566 n
O1 Sr2 O1 73.25(6) 1_555 . 3_665 n
O1 Sr2 O1 73.25(6) 1_555 . 5_565 n
O1 Sr2 O2 125.02(4) 1_555 . 2_554 n
O1 Sr2 O2 93.66(4) 1_555 . 4_664 n
O1 Sr2 O2 154.23(5) 1_555 . 6_564 n
O1 Sr2 O3 88.06(5) 1_555 . -1_665 n
O1 Sr2 O3 141.15(6) 1_555 . -3_565 n
O1 Sr2 O3 68.79(5) 1_555 . -5_555 n
O1 Sr2 Sr1 106.01(5) 1_555 . 1_565 n
O1 Sr2 Sr1 71.892(30) 1_555 . 2_554 n
O1 Sr2 Sr1 40.11(4) 1_555 . 3_555 n
O1 Sr2 Sr1 122.53(4) 1_555 . 4_664 n
O1 Sr2 Sr1 62.18(4) 1_555 . 5_665 n
O1 Sr2 Sr1 133.91(4) 1_555 . 6_564 n
O1 Sr2 Sr2 136.46(4) 1_555 . -2_565 n
O1 Sr2 Sr2 43.54(4) 1_555 . -2_566 n
O1 Sr2 O1 73.25(6) 3_665 . 5_565 n
O1 Sr2 O2 154.23(5) 3_665 . 2_554 n
O1 Sr2 O2 125.02(4) 3_665 . 4_664 n
O1 Sr2 O2 93.66(4) 3_665 . 6_564 n
O1 Sr2 O3 68.79(5) 3_665 . -1_665 n
O1 Sr2 O3 88.06(5) 3_665 . -3_565 n
O1 Sr2 O3 141.15(6) 3_665 . -5_555 n
O1 Sr2 Sr1 62.18(4) 3_665 . 1_565 n
O1 Sr2 Sr1 133.91(4) 3_665 . 2_554 n
O1 Sr2 Sr1 106.01(5) 3_665 . 3_555 n
O1 Sr2 Sr1 71.892(30) 3_665 . 4_664 n
O1 Sr2 Sr1 40.11(4) 3_665 . 5_665 n
O1 Sr2 Sr1 122.53(4) 3_665 . 6_564 n
O1 Sr2 Sr2 136.46(4) 3_665 . -2_565 n
O1 Sr2 Sr2 43.54(4) 3_665 . -2_566 n
O1 Sr2 O2 93.66(4) 5_565 . 2_554 n
O1 Sr2 O2 154.23(5) 5_565 . 4_664 n
O1 Sr2 O2 125.02(4) 5_565 . 6_564 n
O1 Sr2 O3 141.15(6) 5_565 . -1_665 n
O1 Sr2 O3 68.79(5) 5_565 . -3_565 n
O1 Sr2 O3 88.06(5) 5_565 . -5_555 n
O1 Sr2 Sr1 40.11(4) 5_565 . 1_565 n
O1 Sr2 Sr1 122.53(4) 5_565 . 2_554 n
O1 Sr2 Sr1 62.18(4) 5_565 . 3_555 n
O1 Sr2 Sr1 133.91(4) 5_565 . 4_664 n
O1 Sr2 Sr1 106.01(5) 5_565 . 5_665 n
O1 Sr2 Sr1 71.893(30) 5_565 . 6_564 n
O1 Sr2 Sr2 136.46(4) 5_565 . -2_565 n
O1 Sr2 Sr2 43.54(4) 5_565 . -2_566 n
O2 Sr2 O2 75.49(6) 2_554 . 4_664 n
O2 Sr2 O2 75.49(6) 2_554 . 6_564 n
O2 Sr2 O3 124.52(6) 2_554 . -1_665 n
O2 Sr2 O3 66.34(4) 2_554 . -3_565 n
O2 Sr2 O3 57.37(4) 2_554 . -5_555 n
O2 Sr2 Sr1 93.39(4) 2_554 . 1_565 n
O2 Sr2 Sr1 71.86(4) 2_554 . 2_554 n
O2 Sr2 Sr1 86.097(31) 2_554 . 3_555 n
O2 Sr2 Sr1 105.14(5) 2_554 . 4_664 n
O2 Sr2 Sr1 160.31(5) 2_554 . 5_665 n
O2 Sr2 Sr1 32.01(4) 2_554 . 6_564 n
O2 Sr2 Sr2 44.98(4) 2_554 . -2_565 n
O2 Sr2 Sr2 135.02(4) 2_554 . -2_566 n
O2 Sr2 O2 75.49(6) 4_664 . 6_564 n
O2 Sr2 O3 57.37(4) 4_664 . -1_665 n
O2 Sr2 O3 124.52(6) 4_664 . -3_565 n
O2 Sr2 O3 66.34(4) 4_664 . -5_555 n
O2 Sr2 Sr1 160.31(5) 4_664 . 1_565 n
O2 Sr2 Sr1 32.01(4) 4_664 . 2_554 n
O2 Sr2 Sr1 93.39(4) 4_664 . 3_555 n
O2 Sr2 Sr1 71.86(4) 4_664 . 4_664 n
O2 Sr2 Sr1 86.097(31) 4_664 . 5_665 n
O2 Sr2 Sr1 105.14(5) 4_664 . 6_564 n
O2 Sr2 Sr2 44.98(4) 4_664 . -2_565 n
O2 Sr2 Sr2 135.02(4) 4_664 . -2_566 n
O2 Sr2 O3 66.34(4) 6_564 . -1_665 n
O2 Sr2 O3 57.37(4) 6_564 . -3_565 n
O2 Sr2 O3 124.52(6) 6_564 . -5_555 n
O2 Sr2 Sr1 86.097(31) 6_564 . 1_565 n
O2 Sr2 Sr1 105.14(5) 6_564 . 2_554 n
O2 Sr2 Sr1 160.31(5) 6_564 . 3_555 n
O2 Sr2 Sr1 32.01(4) 6_564 . 4_664 n
O2 Sr2 Sr1 93.39(4) 6_564 . 5_665 n
O2 Sr2 Sr1 71.86(4) 6_564 . 6_564 n
O2 Sr2 Sr2 44.98(4) 6_564 . -2_565 n
O2 Sr2 Sr2 135.02(4) 6_564 . -2_566 n
O3 Sr2 O3 116.965(20) -1_665 . -3_565 n
O3 Sr2 O3 116.965(20) -1_665 . -5_555 n
O3 Sr2 Sr1 121.239(33) -1_665 . 1_565 n
O3 Sr2 Sr1 80.792(31) -1_665 . 2_554 n
O3 Sr2 Sr1 121.362(34) -1_665 . 3_555 n
O3 Sr2 Sr1 36.808(30) -1_665 . 4_664 n
O3 Sr2 Sr1 36.219(22) -1_665 . 5_665 n
O3 Sr2 Sr1 137.47(5) -1_665 . 6_564 n
O3 Sr2 Sr2 79.853(33) -1_665 . -2_565 n
O3 Sr2 Sr2 100.147(33) -1_665 . -2_566 n
O3 Sr2 O3 116.965(20) -3_565 . -5_555 n
O3 Sr2 Sr1 36.219(22) -3_565 . 1_565 n
O3 Sr2 Sr1 137.47(5) -3_565 . 2_554 n
O3 Sr2 Sr1 121.239(33) -3_565 . 3_555 n
O3 Sr2 Sr1 80.792(31) -3_565 . 4_664 n
O3 Sr2 Sr1 121.363(34) -3_565 . 5_665 n
O3 Sr2 Sr1 36.808(30) -3_565 . 6_564 n
O3 Sr2 Sr2 79.853(33) -3_565 . -2_565 n
O3 Sr2 Sr2 100.147(33) -3_565 . -2_566 n
O3 Sr2 Sr1 121.363(34) -5_555 . 1_565 n
O3 Sr2 Sr1 36.808(30) -5_555 . 2_554 n
O3 Sr2 Sr1 36.219(22) -5_555 . 3_555 n
O3 Sr2 Sr1 137.47(5) -5_555 . 4_664 n
O3 Sr2 Sr1 121.239(33) -5_555 . 5_665 n
O3 Sr2 Sr1 80.792(31) -5_555 . 6_564 n
O3 Sr2 Sr2 79.853(33) -5_555 . -2_565 n
O3 Sr2 Sr2 100.147(33) -5_555 . -2_566 n
Sr1 Sr2 Sr1 157.965(23) 1_565 . 2_554 n
Sr1 Sr2 Sr1 102.138(25) 1_565 . 3_555 n
Sr1 Sr2 Sr1 96.147(16) 1_565 . 4_664 n
Sr1 Sr2 Sr1 102.138(25) 1_565 . 5_665 n
Sr1 Sr2 Sr1 61.578(20) 1_565 . 6_564 n
Sr1 Sr2 Sr2 116.071(20) 1_565 . -2_565 n
Sr1 Sr2 Sr2 63.929(20) 1_565 . -2_566 n
Sr1 Sr2 Sr1 61.577(20) 2_554 . 3_555 n
Sr1 Sr2 Sr1 103.372(24) 2_554 . 4_664 n
Sr1 Sr2 Sr1 96.146(16) 2_554 . 5_665 n
Sr1 Sr2 Sr1 103.372(24) 2_554 . 6_564 n
Sr1 Sr2 Sr2 64.959(20) 2_554 . -2_565 n
Sr1 Sr2 Sr2 115.041(20) 2_554 . -2_566 n
Sr1 Sr2 Sr1 157.965(23) 3_555 . 4_664 n
Sr1 Sr2 Sr1 102.138(25) 3_555 . 5_665 n
Sr1 Sr2 Sr1 96.147(16) 3_555 . 6_564 n
Sr1 Sr2 Sr2 116.071(20) 3_555 . -2_565 n
Sr1 Sr2 Sr2 63.929(20) 3_555 . -2_566 n
Sr1 Sr2 Sr1 61.577(20) 4_664 . 5_665 n
Sr1 Sr2 Sr1 103.372(24) 4_664 . 6_564 n
Sr1 Sr2 Sr2 64.959(20) 4_664 . -2_565 n
Sr1 Sr2 Sr2 115.041(20) 4_664 . -2_566 n
Sr1 Sr2 Sr1 157.965(23) 5_665 . 6_564 n
Sr1 Sr2 Sr2 116.071(20) 5_665 . -2_565 n
Sr1 Sr2 Sr2 63.929(20) 5_665 . -2_566 n
Sr1 Sr2 Sr2 64.959(20) 6_564 . -2_565 n
Sr1 Sr2 Sr2 115.041(20) 6_564 . -2_566 n
Sr2 Sr2 Sr2 180.0 -2_565 . -2_566 n
La1 O5 La1 111.890(34) 2_555 . 3_555 n
La1 O5 La1 105.81(4) 2_555 . 4_555 n
La1 O5 SI 95.36(6) 2_555 . 2_555 n
La1 O5 O3 82.59(8) 2_555 . 2_555 n
La1 O5 Sr1 0.0 2_555 . 2_555 n
La1 O5 Sr1 111.890(34) 2_555 . 3_555 n
La1 O5 Sr1 105.81(4) 2_555 . 4_555 n
La1 O5 La1 114.753(34) 3_555 . 4_555 n
La1 O5 SI 124.11(5) 3_555 . 2_555 n
La1 O5 O3 70.14(6) 3_555 . 2_555 n
La1 O5 Sr1 111.890(34) 3_555 . 2_555 n
La1 O5 Sr1 0.0 3_555 . 3_555 n
La1 O5 Sr1 114.753(34) 3_555 . 4_555 n
La1 O5 SI 102.11(6) 4_555 . 2_555 n
La1 O5 O3 166.56(8) 4_555 . 2_555 n
La1 O5 Sr1 105.81(4) 4_555 . 2_555 n
La1 O5 Sr1 114.753(34) 4_555 . 3_555 n
La1 O5 Sr1 0.0 4_555 . 4_555 n
SI O5 O3 66.16(9) 2_555 . 2_555 n
SI O5 Sr1 95.36(6) 2_555 . 2_555 n
SI O5 Sr1 124.11(5) 2_555 . 3_555 n
SI O5 Sr1 102.11(6) 2_555 . 4_555 n
O3 O5 Sr1 82.59(8) 2_555 . 2_555 n
O3 O5 Sr1 70.14(6) 2_555 . 3_555 n
O3 O5 Sr1 166.56(8) 2_555 . 4_555 n
Sr1 O5 Sr1 111.890(34) 2_555 . 3_555 n
Sr1 O5 Sr1 105.81(4) 2_555 . 4_555 n
Sr1 O5 Sr1 114.753(34) 3_555 . 4_555 n
loop_
_geom_bond_atom_site_label_1
_geom_bond_atom_site_label_2
_geom_bond_distance
_geom_bond_site_symmetry_1
_geom_bond_site_symmetry_2
_geom_bond_publ_flag
La1 La1 4.0232(19) . 3_555 n
La1 La1 4.0232(19) . 5_555 n
La1 La2 4.1296(12) . 1_545 n
La1 La2 4.1302(12) . -2_556 n
La1 SI 3.2411(23) . 1_555 n
La1 SI 3.3254(24) . 5_555 n
La1 O1 2.7403(21) . 5_555 n
La1 O2 2.5075(21) . 3_655 n
La1 O3 2.6165(17) . 1_555 n
La1 O3 2.4774(11) . 6_555 n
La1 O3 2.4774(11) . -3_555 n
La1 O3 2.6165(17) . -4_556 n
La1 O4 2.3228(11) . 1_555 n
La1 Sr1 4.3067(6) . 2_554 n
La1 Sr1 4.3067(6) . 2_555 n
La1 Sr1 4.0232(19) . 3_555 n
La1 Sr1 4.0232(19) . 5_555 n
La1 Sr1 4.3067(6) . 6_554 n
La1 Sr1 4.3067(6) . 6_555 n
La1 Sr2 4.1301(12) . 1_545 n
La1 Sr2 4.2796(12) . 2_655 n
La1 Sr2 4.2796(12) . -1_665 n
La1 Sr2 4.1301(12) . -2_556 n
La1 O5 2.4790(11) . 4_554 n
La1 O5 2.63345(20) . 5_555 n
La1 O5 2.5645(11) . 6_554 n
La1 O5 2.4790(11) . -1_556 n
La1 O5 2.63345(20) . -2_556 n
La1 O5 2.5645(11) . -3_556 n
La2 La1 4.1296(12) . 1_565 n
La2 La1 4.1302(12) . 3_555 n
La2 La1 4.1305(12) . 5_665 n
La2 La2 3.6228(30) . -2_565 n
La2 La2 3.6303(30) . -2_566 n
La2 SI 3.3288(19) . 2_554 n
La2 SI 3.3293(19) . 4_664 n
La2 SI 3.3284(19) . 6_564 n
La2 O1 2.5044(15) . 1_555 n
La2 O1 2.5041(15) . 3_665 n
La2 O1 2.5037(15) . 5_565 n
La2 O2 2.5606(16) . 2_554 n
La2 O2 2.5613(16) . 4_664 n
La2 O2 2.5608(16) . 6_564 n
La2 O3 2.9058(14) . -1_665 n
La2 O3 2.9048(14) . -3_565 n
La2 O3 2.9055(14) . -5_555 n
La2 Sr1 4.1296(12) . 1_565 n
La2 Sr1 4.2800(12) . 2_554 n
La2 Sr1 4.1302(12) . 3_555 n
La2 Sr1 4.2797(12) . 4_664 n
La2 Sr1 4.1305(12) . 5_665 n
La2 Sr1 4.2792(12) . 6_564 n
La2 Sr2 0.00056 . 1_555 n
La2 Sr2 3.6228(30) . -2_565 n
La2 Sr2 3.6303(30) . -2_566 n
SI La1 3.2411(23) . 1_555 n
SI La1 3.3254(24) . 3_555 n
SI La2 3.3284(19) . 2_655 n
SI La2 3.3293(19) . -1_665 n
SI O1 1.6221(26) . 1_555 n
SI O2 1.6301(25) . 1_555 n
SI O3 1.6242(15) . 1_555 n
SI O3 1.6242(15) . -4_556 n
SI Sr1 3.2411(23) . 1_555 n
SI Sr1 3.3254(24) . 3_555 n
SI Sr1 3.6848(23) . 5_665 n
SI Sr2 3.7312(18) . 1_555 n
SI Sr2 3.3288(19) . 2_655 n
SI Sr2 3.3288(19) . -1_665 n
SI Sr2 3.7312(18) . -2_566 n
SI O5 1.7568(16) . 6_554 n
SI O5 1.7568(16) . -3_556 n
O1 La1 2.7403(21) . 3_555 n
O1 La2 2.5044(15) . 1_555 n
O1 La2 2.5041(15) . -2_566 n
O1 SI 1.6221(26) . 1_555 n
O1 Sr1 2.7403(21) . 3_555 n
O1 Sr2 2.5041(15) . 1_555 n
O1 Sr2 2.5041(15) . -2_566 n
O2 La1 2.5075(21) . 5_665 n
O2 La2 2.5608(16) . 2_655 n
O2 La2 2.5613(16) . -1_665 n
O2 SI 1.6301(25) . 1_555 n
O2 Sr1 2.5075(21) . 5_665 n
O2 Sr2 2.5609(16) . 2_655 n
O2 Sr2 2.5609(16) . -1_665 n
O3 La1 2.6165(17) . 1_555 n
O3 La1 2.4774(11) . 2_554 n
O3 La2 2.9058(14) . -1_665 n
O3 SI 1.6242(15) . 1_555 n
O3 Sr1 2.6165(17) . 1_555 n
O3 Sr1 2.4774(11) . 2_554 n
O3 Sr1 3.4064(17) . 3_555 n
O3 Sr2 2.9054(14) . -1_665 n
O3 O5 0.9463(14) . 6_554 n
O4 La1 2.3228(11) . 1_555 n
O4 La1 2.3228(11) . 3_555 n
O4 La1 2.3228(11) . 5_555 n
O4 Sr1 2.3228(11) . 1_555 n
O4 Sr1 2.3228(11) . 3_555 n
O4 Sr1 2.3228(11) . 5_555 n
Sr1 La1 4.3067(6) . 2_554 n
Sr1 La1 4.3067(6) . 2_555 n
Sr1 La1 4.0232(19) . 3_555 n
Sr1 La1 4.0232(19) . 5_555 n
Sr1 La1 4.3067(6) . 6_554 n
Sr1 La1 4.3067(6) . 6_555 n
Sr1 La2 4.1296(12) . 1_545 n
Sr1 La2 4.2792(12) . 2_655 n
Sr1 La2 4.2797(12) . -1_665 n
Sr1 La2 4.1302(12) . -2_556 n
Sr1 SI 3.2411(23) . 1_555 n
Sr1 SI 3.6848(23) . 3_655 n
Sr1 SI 3.3254(24) . 5_555 n
Sr1 O1 2.7403(21) . 5_555 n
Sr1 O2 2.5075(21) . 3_655 n
Sr1 O3 2.6165(17) . 1_555 n
Sr1 O3 3.4064(17) . 5_555 n
Sr1 O3 2.4774(11) . 6_555 n
Sr1 O3 3.4064(17) . -2_556 n
Sr1 O3 2.4774(11) . -3_555 n
Sr1 O3 2.6165(17) . -4_556 n
Sr1 O4 2.3228(11) . 1_555 n
Sr1 Sr1 4.3067(6) . 2_554 n
Sr1 Sr1 4.3067(6) . 2_555 n
Sr1 Sr1 4.0232(19) . 3_555 n
Sr1 Sr1 4.0232(19) . 5_555 n
Sr1 Sr1 4.3067(6) . 6_554 n
Sr1 Sr1 4.3067(6) . 6_555 n
Sr1 Sr2 4.1301(12) . 1_545 n
Sr1 Sr2 4.2796(12) . 2_655 n
Sr1 Sr2 4.2796(12) . -1_665 n
Sr1 Sr2 4.1301(12) . -2_556 n
Sr1 O5 2.4790(11) . 4_554 n
Sr1 O5 2.63345(20) . 5_555 n
Sr1 O5 2.5645(11) . 6_554 n
Sr1 O5 2.4790(11) . -1_556 n
Sr1 O5 2.63345(20) . -2_556 n
Sr1 O5 2.5645(11) . -3_556 n
Sr2 La1 4.1301(12) . 1_565 n
Sr2 La1 4.2796(12) . 2_554 n
Sr2 La1 4.1301(12) . 3_555 n
Sr2 La1 4.2796(12) . 4_664 n
Sr2 La1 4.1301(12) . 5_665 n
Sr2 La1 4.2796(12) . 6_564 n
Sr2 La2 0.00056 . 1_555 n
Sr2 La2 3.6228(30) . -2_565 n
Sr2 La2 3.6303(30) . -2_566 n
Sr2 SI 3.7312(18) . 1_555 n
Sr2 SI 3.3288(19) . 2_554 n
Sr2 SI 3.7312(18) . 3_665 n
Sr2 SI 3.3288(19) . 4_664 n
Sr2 SI 3.7312(18) . 5_565 n
Sr2 SI 3.3288(19) . 6_564 n
Sr2 O1 2.5041(15) . 1_555 n
Sr2 O1 2.5041(15) . 3_665 n
Sr2 O1 2.5041(15) . 5_565 n
Sr2 O2 2.5609(16) . 2_554 n
Sr2 O2 2.5609(16) . 4_664 n
Sr2 O2 2.5609(16) . 6_564 n
Sr2 O3 2.9054(14) . -1_665 n
Sr2 O3 2.9053(14) . -3_565 n
Sr2 O3 2.9053(14) . -5_555 n
Sr2 Sr1 4.1301(12) . 1_565 n
Sr2 Sr1 4.2796(12) . 2_554 n
Sr2 Sr1 4.1301(12) . 3_555 n
Sr2 Sr1 4.2796(12) . 4_664 n
Sr2 Sr1 4.1301(12) . 5_665 n
Sr2 Sr1 4.2796(12) . 6_564 n
Sr2 Sr2 3.6228(30) . -2_565 n
Sr2 Sr2 3.6303(30) . -2_566 n
O5 La1 2.5645(11) . 2_555 n
O5 La1 2.63345(20) . 3_555 n
O5 La1 2.4790(11) . 4_555 n
O5 SI 1.7568(16) . 2_555 n
O5 O3 0.9463(14) . 2_555 n
O5 Sr1 2.5645(11) . 2_555 n
O5 Sr1 2.63345(20) . 3_555 n
O5 Sr1 2.4790(11) . 4_555 n
O5 O5 1.98736(15) . -4_557 n
loop_
_pd_block_diffractogram_id
2004-06-11T10:45|LA8SR2SI6_H_01|La8Sr2Si6O26_750K|TOF
2004-06-11T10:45|LA8SR2SI6_H_02|La8Sr2Si6O26_750K|TOF
loop_
_pd_phase_block_id
2004-06-11T10:45|LA8SR2SI6_phase1|La8Sr2Si6O26_750K||
