#------------------------------------------------------------------------------
#$Date: 2016-03-26 17:01:19 +0200 (Sat, 26 Mar 2016) $
#$Revision: 180368 $
#$URL: svn://www.crystallography.net/cod/cif/7/20/37/7203768.cif $
#------------------------------------------------------------------------------
#
# This file is available in the Crystallography Open Database (COD),
# http://www.crystallography.net/
#
# All data on this site have been placed in the public domain by the
# contributors.
#
data_7203768
loop_
_publ_author_name
'Le\'on-Reina, Laura'
'Losilla, Enrique R.'
'Mart\'inez-Lara, Maria'
'Bruque, Sebasti\'an'
'Llobet, Anna'
'Sheptyakov, Denis V.'
'Aranda, Miguel A. G.'
_publ_section_title
;
 Interstitial oxygen in oxygen-stoichiometric apatites
;
_journal_issue                   25
_journal_name_full               'Journal of Materials Chemistry'
_journal_page_first              2489
_journal_paper_doi               10.1039/b503374h
_journal_volume                  15
_journal_year                    2005
_chemical_formula_sum            'La1.56 O4.33 Si'
_chemical_formula_weight         314.21
_chemical_name_systematic        ' ?'
_space_group_IT_number           176
_symmetry_cell_setting           hexagonal
_symmetry_space_group_name_Hall  '-P 6c'
_symmetry_space_group_name_H-M   'P 63/m'
_audit_creation_date             2005-03-07T16:11
_audit_creation_method           'from EXP file using GSAS2CIF'
_audit_update_record
' 2005-03-07T16:11 Initial CIF as created by GSAS2CIF'
_cell_angle_alpha                90.0
_cell_angle_beta                 90.0
_cell_angle_gamma                120.0
_cell_formula_units_Z            6
_cell_length_a                   9.77167(28)
_cell_length_b                   9.77167
_cell_length_c                   7.21223(21)
_cell_volume                     596.40(2)
_computing_structure_refinement  GSAS
_pd_block_id
2005-03-07T16:11|La933Si6_773K|M.A.G._Aranda|Overall
_pd_phase_name
'from C:/Rietveld/Laura_Rietveld/Sinq_Dic2003/LaSiO/LaSiO_RT/LA933S'
_refine_ls_goodness_of_fit_all   1.95
_refine_ls_matrix_type           full
_refine_ls_number_parameters     87
_refine_ls_number_restraints     0
_refine_ls_shift/su_max          0.06
_refine_ls_shift/su_mean         0.01
_cod_data_source_file            b503374h.txt
_cod_data_source_block           La933Si6_773K_overall
_cod_depositor_comments
;
The following automatic conversions were performed:
'_geom_angle_publ_flag' value 'N' changed to 'n' according to
'/home/saulius/struct/CIF-dictionaries/cif_core.dic' dictionary named
'cif_core.dic' version 2.4.1 from 2010-06-29 (152
times).

'_geom_bond_publ_flag' value 'N' changed to 'n' according to
'/home/saulius/struct/CIF-dictionaries/cif_core.dic' dictionary named
'cif_core.dic' version 2.4.1 from 2010-06-29 (68 times).

Automatic conversion script
Id: cif_fix_enum 1527 2010-12-29 10:47:43Z saulius 
;
_cod_original_cell_volume        596.40027
_cod_database_code               7203768
loop_
_symmetry_equiv_pos_site_id
_symmetry_equiv_pos_as_xyz
1 +x,+y,+z
2 x-y,+x,+z+1/2
3 -y,x-y,+z
4 -x,-y,+z+1/2
5 y-x,-x,+z
6 +y,y-x,+z+1/2
-1 -x,-y,-z
-2 y-x,-x,-z+1/2
-3 +y,y-x,-z
-4 +x,+y,-z+1/2
-5 x-y,+x,-z
-6 -y,x-y,-z+1/2
loop_
_atom_site_aniso_label
_atom_site_aniso_U_11
_atom_site_aniso_U_12
_atom_site_aniso_U_13
_atom_site_aniso_U_22
_atom_site_aniso_U_23
_atom_site_aniso_U_33
La1 0.0161(15) 0.0050(13) 0.0 0.0093(14) 0.0 0.0070(9)
La2 0.0125(13) 0.0063(6) 0.0 0.0125(13) 0.0 0.0319(22)
SI 0.0095(26) 0.0067(24) 0.0 0.0071(23) 0.0 0.0199(24)
O1 0.0410(28) 0.0307(29) 0.0 0.035(4) 0.0 0.0333(27)
O2 0.0173(22) 0.0049(26) 0.0 0.0124(23) 0.0 0.0351(27)
O3 0.0656(24) 0.0214(17) -0.0197(15) 0.0187(16) -0.0113(10) 0.0191(15)
O4 0.0176(25) 0.0088(13) 0.0 0.0176(25) 0.0 0.073(7)
loop_
_atom_site_type_symbol
_atom_site_label
_atom_site_fract_x
_atom_site_fract_y
_atom_site_fract_z
_atom_site_occupancy
_atom_site_thermal_displace_type
_atom_site_U_iso_or_equiv
_atom_site_symmetry_multiplicity
LA La1 0.23028(28) -0.01302(33) 0.25 1.0 Uani 0.01139 6
LA La2 0.3333 0.6667 -0.0010(6) 0.841 Uani 0.01897 4
SI SI 0.4002(6) 0.3709(6) 0.25 1.0 Uani 0.01104 6
O O1 0.3228(5) 0.4834(5) 0.25 1.0 Uani 0.03133 6
O O2 0.5923(4) 0.4712(5) 0.25 1.0 Uani 0.02269 6
O O3 0.34242(32) 0.25520(30) 0.07072(27) 1.0 Uani 0.03432 12
O O4 0.0 0.0 0.25 0.946(13) Uani 0.03604 2
O O5 0.01(4) 0.23(4) 0.62(4) 0.0089(22) Uiso 0.03 12
loop_
_atom_type_symbol
_atom_type_number_in_cell
LA 9.364
SI 6.0
O 26.0
loop_
_geom_angle_atom_site_label_1
_geom_angle_atom_site_label_2
_geom_angle_atom_site_label_3
_geom_angle
_geom_angle_site_symmetry_1
_geom_angle_site_symmetry_2
_geom_angle_site_symmetry_3
_geom_angle_publ_flag
O1 La1 O2 99.05(14) 5_555 . 3_655 n
O1 La1 O3 148.23(6) 5_555 . 1_555 n
O1 La1 O3 71.56(8) 5_555 . 6_555 n
O1 La1 O3 71.56(8) 5_555 . -3_555 n
O1 La1 O3 148.23(6) 5_555 . -4_556 n
O1 La1 O4 110.34(12) 5_555 . 1_555 n
O1 La1 O5 56(6) 5_555 . 4_554 n
O1 La1 O5 91(7) 5_555 . 5_555 n
O1 La1 O5 154(6) 5_555 . 6_554 n
O1 La1 O5 56(6) 5_555 . -1_556 n
O1 La1 O5 91(7) 5_555 . -2_556 n
O1 La1 O5 154(6) 5_555 . -3_556 n
O2 La1 O3 71.62(12) 3_655 . 1_555 n
O2 La1 O3 83.97(9) 3_655 . 6_555 n
O2 La1 O3 83.97(9) 3_655 . -3_555 n
O2 La1 O3 71.62(12) 3_655 . -4_556 n
O2 La1 O4 150.61(16) 3_655 . 1_555 n
O2 La1 O5 144(6) 3_655 . 4_554 n
O2 La1 O5 92(6) 3_655 . 5_555 n
O2 La1 O5 93(7) 3_655 . 6_554 n
O2 La1 O5 144(6) 3_655 . -1_556 n
O2 La1 O5 92(6) 3_655 . -2_556 n
O2 La1 O5 93(7) 3_655 . -3_556 n
O3 La1 O3 134.55(12) 1_555 . 6_555 n
O3 La1 O3 77.20(5) 1_555 . -3_555 n
O3 La1 O3 59.12(11) 1_555 . -4_556 n
O3 La1 O4 82.93(9) 1_555 . 1_555 n
O3 La1 O5 115(6) 1_555 . 4_554 n
O3 La1 O5 119(7) 1_555 . 5_555 n
O3 La1 O5 23(7) 1_555 . 6_554 n
O3 La1 O5 143(6) 1_555 . -1_556 n
O3 La1 O5 60(7) 1_555 . -2_556 n
O3 La1 O5 57(6) 1_555 . -3_556 n
O3 La1 O3 138.66(16) 6_555 . -3_555 n
O3 La1 O3 77.20(5) 6_555 . -4_556 n
O3 La1 O4 104.89(9) 6_555 . 1_555 n
O3 La1 O5 108(6) 6_555 . 4_554 n
O3 La1 O5 22(7) 6_555 . 5_555 n
O3 La1 O5 133(6) 6_555 . 6_554 n
O3 La1 O5 65(6) 6_555 . -1_556 n
O3 La1 O5 161(7) 6_555 . -2_556 n
O3 La1 O5 87(6) 6_555 . -3_556 n
O3 La1 O3 134.55(12) -3_555 . -4_556 n
O3 La1 O4 104.89(9) -3_555 . 1_555 n
O3 La1 O5 65(6) -3_555 . 4_554 n
O3 La1 O5 161(7) -3_555 . 5_555 n
O3 La1 O5 87(6) -3_555 . 6_554 n
O3 La1 O5 108(6) -3_555 . -1_556 n
O3 La1 O5 22(7) -3_555 . -2_556 n
O3 La1 O5 133(6) -3_555 . -3_556 n
O3 La1 O4 82.93(9) -4_556 . 1_555 n
O3 La1 O5 143(6) -4_556 . 4_554 n
O3 La1 O5 60(7) -4_556 . 5_555 n
O3 La1 O5 57(6) -4_556 . 6_554 n
O3 La1 O5 115(6) -4_556 . -1_556 n
O3 La1 O5 119(7) -4_556 . -2_556 n
O3 La1 O5 23(7) -4_556 . -3_556 n
O4 La1 O5 60(6) 1_555 . 4_554 n
O4 La1 O5 88(6) 1_555 . 5_555 n
O4 La1 O5 61(8) 1_555 . 6_554 n
O4 La1 O5 60(6) 1_555 . -1_556 n
O4 La1 O5 88(6) 1_555 . -2_556 n
O4 La1 O5 61(8) 1_555 . -3_556 n
O5 La1 O5 111(10) 4_554 . 5_555 n
O5 La1 O5 102(13) 4_554 . 6_554 n
O5 La1 O5 46(13) 4_554 . -1_556 n
O5 La1 O5 66(8) 4_554 . -2_556 n
O5 La1 O5 121(11) 4_554 . -3_556 n
O5 La1 O5 112(11) 5_555 . 6_554 n
O5 La1 O5 66(8) 5_555 . -1_556 n
O5 La1 O5 175(12) 5_555 . -2_556 n
O5 La1 O5 66(8) 5_555 . -3_556 n
O5 La1 O5 121(11) 6_554 . -1_556 n
O5 La1 O5 66(8) 6_554 . -2_556 n
O5 La1 O5 46(13) 6_554 . -3_556 n
O5 La1 O5 111(10) -1_556 . -2_556 n
O5 La1 O5 102(13) -1_556 . -3_556 n
O5 La1 O5 112(11) -2_556 . -3_556 n
La2 La2 La2 179.9604 -2_565 . -2_566 n
La2 La2 O1 136.09(10) -2_565 . 1_555 n
La2 La2 O1 136.10(10) -2_565 . 3_665 n
La2 La2 O1 136.13(10) -2_565 . 5_565 n
La2 La2 O2 45.43(10) -2_565 . 2_554 n
La2 La2 O2 45.42(10) -2_565 . 4_664 n
La2 La2 O2 45.42(10) -2_565 . 6_564 n
La2 La2 O1 43.89(10) -2_566 . 1_555 n
La2 La2 O1 43.88(10) -2_566 . 3_665 n
La2 La2 O1 43.90(10) -2_566 . 5_565 n
La2 La2 O2 134.60(10) -2_566 . 2_554 n
La2 La2 O2 134.56(10) -2_566 . 4_664 n
La2 La2 O2 134.58(10) -2_566 . 6_564 n
O1 La2 O1 73.79(15) 1_555 . 3_665 n
O1 La2 O1 73.80(15) 1_555 . 5_565 n
O1 La2 O2 124.40(11) 1_555 . 2_554 n
O1 La2 O2 92.94(8) 1_555 . 4_664 n
O1 La2 O2 154.24(12) 1_555 . 6_564 n
O1 La2 O1 73.81(15) 3_665 . 5_565 n
O1 La2 O2 154.29(12) 3_665 . 2_554 n
O1 La2 O2 124.38(11) 3_665 . 4_664 n
O1 La2 O2 92.96(8) 3_665 . 6_564 n
O1 La2 O2 92.97(8) 5_565 . 2_554 n
O1 La2 O2 154.26(12) 5_565 . 4_664 n
O1 La2 O2 124.42(11) 5_565 . 6_564 n
O2 La2 O2 76.18(16) 2_554 . 4_664 n
O2 La2 O2 76.18(16) 2_554 . 6_564 n
O2 La2 O2 76.17(16) 4_664 . 6_564 n
O1 SI O2 112.4(4) 1_555 . 1_555 n
O1 SI O3 110.86(22) 1_555 . 1_555 n
O1 SI O3 110.86(22) 1_555 . -4_556 n
O1 SI O5 91(11) 1_555 . 6_554 n
O1 SI O5 91(11) 1_555 . -3_556 n
O2 SI O3 108.33(24) 1_555 . 1_555 n
O2 SI O3 108.33(24) 1_555 . -4_556 n
O2 SI O5 142(10) 1_555 . 6_554 n
O2 SI O5 142(10) 1_555 . -3_556 n
O3 SI O3 105.74(33) 1_555 . -4_556 n
O3 SI O5 33(10) 1_555 . 6_554 n
O3 SI O5 90(8) 1_555 . -3_556 n
O3 SI O5 90(8) -4_556 . 6_554 n
O3 SI O5 33(10) -4_556 . -3_556 n
O5 SI O5 63(17) 6_554 . -3_556 n
La1 O1 La2 104.07(12) 3_555 . 1_555 n
La1 O1 La2 104.09(12) 3_555 . -2_566 n
La1 O1 SI 96.28(26) 3_555 . 1_555 n
La2 O1 La2 92.21(19) 1_555 . -2_566 n
La2 O1 SI 128.23(13) 1_555 . 1_555 n
La2 O1 SI 128.22(13) -2_566 . 1_555 n
La1 O2 La2 115.06(11) 5_665 . 2_655 n
La1 O2 La2 115.05(11) 5_665 . -1_665 n
La1 O2 SI 124.79(32) 5_665 . 1_555 n
La2 O2 La2 89.15(21) 2_655 . -1_665 n
La2 O2 SI 103.22(19) 2_655 . 1_555 n
La2 O2 SI 103.23(19) -1_665 . 1_555 n
La1 O3 La1 114.57(14) 1_555 . 2_554 n
La1 O3 SI 97.44(17) 1_555 . 1_555 n
La1 O3 O5 69(17) 1_555 . 6_554 n
La1 O3 SI 142.87(21) 2_554 . 1_555 n
La1 O3 O5 89(15) 2_554 . 6_554 n
SI O3 O5 85(15) 1_555 . 6_554 n
La1 O4 La1 120.0 1_555 . 3_555 n
La1 O4 La1 120.0 1_555 . 5_555 n
La1 O4 La1 120.0 3_555 . 5_555 n
La1 O5 La1 114(11) 2_555 . 3_555 n
La1 O5 La1 109(10) 2_555 . 4_555 n
La1 O5 SI 98(13) 2_555 . 2_555 n
La1 O5 O3 88(20) 2_555 . 2_555 n
La1 O5 La1 114(12) 3_555 . 4_555 n
La1 O5 SI 119(13) 3_555 . 2_555 n
La1 O5 O3 69(14) 3_555 . 2_555 n
La1 O5 SI 101(12) 4_555 . 2_555 n
La1 O5 O3 158(23) 4_555 . 2_555 n
SI O5 O3 62(14) 2_555 . 2_555 n
loop_
_geom_bond_atom_site_label_1
_geom_bond_atom_site_label_2
_geom_bond_distance
_geom_bond_site_symmetry_1
_geom_bond_site_symmetry_2
_geom_bond_publ_flag
La1 La1 4.012(4) . 3_555 n
La1 La1 4.012(4) . 5_555 n
La1 La2 4.1517(30) . 1_545 n
La1 La2 4.1523(30) . -2_556 n
La1 SI 3.256(6) . 1_555 n
La1 SI 3.339(6) . 5_555 n
La1 O1 2.751(6) . 5_555 n
La1 O2 2.531(4) . 3_655 n
La1 O3 2.6211(34) . 1_555 n
La1 O3 2.4722(22) . 6_555 n
La1 O3 2.4722(22) . -3_555 n
La1 O3 2.6211(34) . -4_556 n
La1 O4 2.3165(22) . 1_555 n
La1 O5 2.46(33) . 4_554 n
La1 O5 2.65(26) . 5_555 n
La1 O5 2.45(30) . 6_554 n
La1 O5 2.46(33) . -1_556 n
La1 O5 2.65(26) . -2_556 n
La1 O5 2.45(30) . -3_556 n
La2 La1 4.1517(30) . 1_565 n
La2 La1 4.1523(30) . 3_555 n
La2 La1 4.1526(30) . 5_665 n
La2 La2 3.591(9) . -2_565 n
La2 La2 3.621(9) . -2_566 n
La2 SI 3.331(5) . 2_554 n
La2 SI 3.331(5) . 4_664 n
La2 SI 3.331(5) . 6_564 n
La2 O1 2.513(4) . 1_555 n
La2 O1 2.512(4) . 3_665 n
La2 O1 2.512(4) . 5_565 n
La2 O2 2.558(4) . 2_554 n
La2 O2 2.559(4) . 4_664 n
La2 O2 2.558(4) . 6_564 n
La2 O3 2.9082(28) . -1_665 n
La2 O3 2.9073(28) . -3_565 n
La2 O3 2.9079(28) . -5_555 n
SI La1 3.256(6) . 1_555 n
SI La1 3.339(6) . 3_555 n
SI La2 3.331(5) . 2_655 n
SI La2 3.331(5) . -1_665 n
SI O1 1.616(5) . 1_555 n
SI O2 1.627(5) . 1_555 n
SI O3 1.622(4) . 1_555 n
SI O3 1.622(4) . -4_556 n
SI O5 1.83(28) . 6_554 n
SI O5 1.83(28) . -3_556 n
O1 La1 2.751(6) . 3_555 n
O1 La2 2.513(4) . 1_555 n
O1 La2 2.512(4) . -2_566 n
O1 SI 1.616(5) . 1_555 n
O2 La1 2.531(4) . 5_665 n
O2 La2 2.558(4) . 2_655 n
O2 La2 2.559(4) . -1_665 n
O2 SI 1.627(5) . 1_555 n
O3 La1 2.6211(34) . 1_555 n
O3 La1 2.4722(22) . 2_554 n
O3 La2 2.9082(28) . -1_665 n
O3 SI 1.622(4) . 1_555 n
O3 O5 1.01(32) . 6_554 n
O4 La1 2.3165(22) . 1_555 n
O4 La1 2.3165(22) . 3_555 n
O4 La1 2.3165(22) . 5_555 n
O5 La1 2.45(30) . 2_555 n
O5 La1 2.65(26) . 3_555 n
O5 La1 2.46(33) . 4_555 n
O5 SI 1.83(28) . 2_555 n
O5 O3 1.01(32) . 2_555 n
O5 O5 1.9(5) . -4_557 n
loop_
_pd_block_diffractogram_id
2005-03-07T16:11|La933Si6_773K_H_01|M.A.G._Aranda|hrpt_npd
loop_
_pd_phase_block_id
2005-03-07T16:11|La933Si6_773K_phase1|M.A.G._Aranda||
2005-03-07T16:11|La933Si6_773K_phase2|M.A.G._Aranda||
