#------------------------------------------------------------------------------
#$Date: 2016-02-16 03:10:39 +0200 (Tue, 16 Feb 2016) $
#$Revision: 176453 $
#$URL: svn://www.crystallography.net/cod/cif/7/20/72/7207285.cif $
#------------------------------------------------------------------------------
#
# This file is available in the Crystallography Open Database (COD),
# http://www.crystallography.net/
#
# All data on this site have been placed in the public domain by the
# contributors.
#
data_7207285
loop_
_publ_author_name
'Li, Henan'
'Baikie, Tom'
'Pramana, Stevin S.'
'Shin, J. Felix'
'Slater, Peter R.'
'Brink, Frank'
'Hester, James'
'Wallwork, Kia'
'White, Tim J.'
_publ_section_title
;
 Synthesis and characterisation of vanadium doped alkaline earth lanthanum
 germanate oxyapatite electrolyte
;
_journal_issue                   6
_journal_name_full               'Journal of Materials Chemistry'
_journal_page_first              2658
_journal_paper_doi               10.1039/c1jm13752b
_journal_volume                  22
_journal_year                    2012
_chemical_formula_sum            'Ge5.84 La7.93 O26 Sr2 V0.16'
_chemical_formula_weight         2125.2(9)
_chemical_name_common            'Germanate electrolyte Apatite'
_space_group_IT_number           176
_symmetry_cell_setting           hexagonal
_symmetry_Int_Tables_number      176
_symmetry_space_group_name_Hall  '-P 6c'
_symmetry_space_group_name_H-M   'P 63/m'
_cell_angle_alpha                90
_cell_angle_beta                 90
_cell_angle_gamma                120
_cell_formula_units_Z            1
_cell_length_a                   9.90847(18)
_cell_length_b                   9.90847(18)
_cell_length_c                   7.32192(16)
_cell_measurement_reflns_used    409
_cell_measurement_temperature    298
_cell_volume                     622.54(2)
_diffrn_ambient_temperature      298
_diffrn_detector                 '128 linear position sensitive detectors'
_diffrn_measurement_device_type  local
_diffrn_radiation_monochromator  'Ge 335'
_diffrn_radiation_probe          neutron
_diffrn_radiation_type           Neutron
_diffrn_radiation_wavelength     1.62200
_diffrn_reflns_limit_h_max       0
_diffrn_reflns_limit_h_min       -9
_diffrn_reflns_limit_k_max       12
_diffrn_reflns_limit_k_min       0
_diffrn_reflns_limit_l_max       8
_diffrn_reflns_limit_l_min       0
_diffrn_source_type
'Echidna (high resolution powder diffractometer) beamline'
_exptl_crystal_colour            yellow
_exptl_crystal_density_diffrn    5.669(2)
_exptl_crystal_density_method    'not measured'
_pd_meas_2theta_range_max        163.94978
_pd_meas_2theta_range_min        4.00081
_pd_meas_number_of_points        3200
_pd_meas_scan_method             fixed
_pd_proc_2theta_range_max        163.95
_pd_proc_2theta_range_min        10
_pd_proc_info_excluded_regions
'4 to 10 degrees unreliable due to background''
_pd_proc_ls_prof_R_factor        0.03381
_pd_proc_ls_prof_wR_expected     0.03041
_pd_proc_ls_prof_wR_factor       0.04219
_pd_proc_wavelength              1.622
_pd_spec_mounting                'vanadium can'
_pd_spec_mount_mode              transmission
_pd_spec_shape                   cylinder
_refine_ls_goodness_of_fit_all   1.388
_refine_ls_matrix_type           full
_refine_ls_number_constraints    0
_refine_ls_number_parameters     45
_refine_ls_number_restraints     0
_refine_ls_weighting_scheme      sigma
_cod_data_source_file            c1jm13752b.txt
_cod_data_source_block           La7.93Sr2Ge5.84V0.16O25.98
_cod_original_cell_volume        622.54(3)
_cod_original_sg_symbol_H-M      P63/m
_cod_original_formula_sum        Ge5.84La7.93O26Sr2V0.16
_cod_database_code               7207285
loop_
_symmetry_equiv_pos_as_xyz
'-x, -y, -z'
'-x, -y, z+1/2'
'-x+y, -x, -z+1/2'
'-x+y, -x, z'
'-y, x-y, -z+1/2'
'-y, x-y, z'
'y, -x+y, -z'
'y, -x+y, z+1/2'
'x-y, x, -z'
'x-y, x, z+1/2'
'x, y, -z+1/2'
'x, y, z'
loop_
_atom_site_aniso_label
_atom_site_type_aniso_symbol
_atom_site_aniso_U_11
_atom_site_aniso_U_22
_atom_site_aniso_U_33
_atom_site_aniso_U_12
_atom_site_aniso_U_13
_atom_site_aniso_U_23
O1 O 0.0180(16) 0.0125(17) 0.0071(15) 0.0134(15) 0 0
O2 O 0.0037(14) 0.0069(14) 0.0134(16) -0.0008(12) 0 0
O3 O 0.0371(18) 0.0138(12) 0.00896(95) 0.0152(11) -0.00970(96) -0.00303(87)
O4 O 0.0145(16) 0.0145(16) 0.0212(27) 0.00727(81) 0 0
loop_
_atom_site_label
_atom_site_type_symbol
_atom_site_symmetry_multiplicity
_atom_site_fract_x
_atom_site_fract_y
_atom_site_fract_z
_atom_site_occupancy
_atom_site_B_iso_or_equiv
La1 La 4 0.3333333 0.6666667 0.49836(47) 0.5337(46) 0.460(42)
Sr1 Sr 4 0.3333333 0.6666667 0.49836(47) 0.4490(80) 0.460(42)
La2 La 6 0.23105(22) -0.00949(27) 0.25 0.9660(53) 0.272(31)
Sr2 Sr 6 0.23105(22) -0.00949(27) 0.25 0.0340(53) 0.272(31)
Ge1 Ge 6 0.39993(26) 0.37230(21) 0.25 0.9741(66) 0.545(45)
V1 V 6 0.39993(26) 0.37230(21) 0.25 0.0259(66) 0.545(45)
O1 O 6 0.31032(36) 0.48475(36) 0.25 1 ?
O2 O 6 0.60368(32) 0.47674(34) 0.25 1 ?
O3 O 12 0.33901(30) 0.24651(27) 0.06358(25) 1 ?
O4 O 2 0 0 0.25 1 ?
