#------------------------------------------------------------------------------
#$Date: 2016-02-16 03:10:39 +0200 (Tue, 16 Feb 2016) $
#$Revision: 176453 $
#$URL: svn://www.crystallography.net/cod/cif/7/20/94/7209490.cif $
#------------------------------------------------------------------------------
#
# This file is available in the Crystallography Open Database (COD),
# http://www.crystallography.net/
#
# All data on this site have been placed in the public domain by the
# contributors.
#
data_7209490
loop_
_publ_author_name
'Utzolino, A.'
'Bluhm, K.'
_publ_section_title
;
 Die Synthese und Kristallstruktur von: Ba2 Mn (B3 O6)2 und Ba2 Co (B3
 O6)2
;
_journal_name_full
;
Zeitschrift fuer Naturforschung, Teil B. Anorganische Chemie, Organische
 Chemie (42,1987-)
;
_journal_page_first              907
_journal_page_last               911
_journal_volume                  51
_journal_year                    1996
_chemical_formula_sum            'B6 Ba2 Mn O12'
_chemical_name_systematic        'Ba2 Mn (B3 O6)2'
_space_group_IT_number           148
_symmetry_space_group_name_Hall  '-R 3'
_symmetry_space_group_name_H-M   'R -3 :H'
_cell_angle_alpha                90
_cell_angle_beta                 90
_cell_angle_gamma                120
_cell_formula_units_Z            3
_cell_length_a                   7.1101
_cell_length_b                   7.1101
_cell_length_c                   16.949
_cell_volume                     742.038
_citation_journal_id_ASTM        ZNBSEN
_cod_data_source_file            boron4-x_214.cif
_cod_data_source_block           B6Ba2Mn1O12
_cod_original_cell_volume        742.0379
_cod_original_formula_sum        'B6 Ba2 Mn1 O12'
_cod_database_code               7209490
loop_
_symmetry_equiv_pos_as_xyz
x,y,z
-y,x-y,z
-x+y,-x,z
-x,-y,-z
y,-x+y,-z
x-y,x,-z
x+2/3,y+1/3,z+1/3
-y+2/3,x-y+1/3,z+1/3
-x+y+2/3,-x+1/3,z+1/3
-x+2/3,-y+1/3,-z+1/3
y+2/3,-x+y+1/3,-z+1/3
x-y+2/3,x+1/3,-z+1/3
x+1/3,y+2/3,z+2/3
-y+1/3,x-y+2/3,z+2/3
-x+y+1/3,-x+2/3,z+2/3
-x+1/3,-y+2/3,-z+2/3
y+1/3,-x+y+2/3,-z+2/3
x-y+1/3,x+2/3,-z+2/3
loop_
_atom_site_label
_atom_site_type_symbol
_atom_site_fract_x
_atom_site_fract_y
_atom_site_fract_z
_atom_site_occupancy
_atom_site_U_iso_or_equiv
O2 O-2 0.4259 0.3348 0.25033 1 0.0
Ba1 Ba+2 0 0 0.21105 1 0.0
Mn1 Mn+2 0 0 0 1 0.0
O1 O-2 0.5467 0.7158 0.25531 1 0.0
B1 B+3 0.3851 0.4965 0.25375 1 0.0
