#------------------------------------------------------------------------------
#$Date: 2016-02-13 21:28:24 +0200 (Sat, 13 Feb 2016) $
#$Revision: 176429 $
#$URL: svn://www.crystallography.net/cod/cif/7/22/11/7221100.cif $
#------------------------------------------------------------------------------
#
# This file is available in the Crystallography Open Database (COD),
# http://www.crystallography.net/
#
# All data on this site have been placed in the public domain by the
# contributors.
#
data_7221100
loop_
_publ_author_name
'Knee, C.S.'
'Rainford, B.D.'
'Weller, M.T.'
_publ_section_title
;
 Crystal structure of the ferromagnetic superconductor Ru Sr2 (Gd1.3
 Ce0.7) Cu2 O10-d by powder neutron diffraction
;
_journal_name_full               'Journal of Materials Chemistry'
_journal_page_first              2445
_journal_page_last               2447
_journal_volume                  10
_journal_year                    2000
_chemical_formula_sum            'Ce0.7 Cu2 Gd1.3 O9.74 Ru Sr2'
_chemical_name_systematic        'Ru Sr2 (Gd1.3 Ce0.7) Cu2 O9.74'
_space_group_IT_number           139
_symmetry_space_group_name_Hall  '-I 4 2'
_symmetry_space_group_name_H-M   'I 4/m m m'
_cell_angle_alpha                90
_cell_angle_beta                 90
_cell_angle_gamma                90
_cell_formula_units_Z            2
_cell_length_a                   3.84237
_cell_length_b                   3.84237
_cell_length_c                   28.58029
_cell_volume                     421.954
_citation_journal_id_ASTM        JMACEP
_cod_data_source_file            Knee_JMACEP_2000_1554.cif
_cod_data_source_block           Ce0.7Cu2Gd1.3O9.74Ru1Sr2
_cod_original_cell_volume        421.9539
_cod_original_formula_sum        'Ce0.7 Cu2 Gd1.3 O9.74 Ru1 Sr2'
_cod_database_code               7221100
loop_
_symmetry_equiv_pos_as_xyz
x,y,z
-y,x,z
-x,-y,z
y,-x,z
x,-y,-z
y,x,-z
-x,y,-z
-y,-x,-z
-x,-y,-z
y,-x,-z
x,y,-z
-y,x,-z
-x,y,z
-y,-x,z
x,-y,z
y,x,z
x+1/2,y+1/2,z+1/2
-y+1/2,x+1/2,z+1/2
-x+1/2,-y+1/2,z+1/2
y+1/2,-x+1/2,z+1/2
x+1/2,-y+1/2,-z+1/2
y+1/2,x+1/2,-z+1/2
-x+1/2,y+1/2,-z+1/2
-y+1/2,-x+1/2,-z+1/2
-x+1/2,-y+1/2,-z+1/2
y+1/2,-x+1/2,-z+1/2
x+1/2,y+1/2,-z+1/2
-y+1/2,x+1/2,-z+1/2
-x+1/2,y+1/2,z+1/2
-y+1/2,-x+1/2,z+1/2
x+1/2,-y+1/2,z+1/2
y+1/2,x+1/2,z+1/2
loop_
_atom_site_label
_atom_site_type_symbol
_atom_site_fract_x
_atom_site_fract_y
_atom_site_fract_z
_atom_site_occupancy
_atom_site_U_iso_or_equiv
Ru1 Ru+4 0 0 0 1 0.0
Cu1 Cu+2 0 0 0.144 1 0.0
O3 O-2 0.119 0.5 0 0.47 0.0
Sr1 Sr+2 0.5 0.5 0.0776 1 0.0
O4 O-2 0 0.5 0.25 0.93 0.0
Ce1 Ce+4 0.5 0.5 0.2049 0.35 0.0
O1 O-2 0.052 0 0.067 0.25 0.0
O2 O-2 0 0.5 0.15038 1 0.0
Gd1 Gd+3 0.5 0.5 0.2049 0.65 0.0
