#------------------------------------------------------------------------------
#$Date: 2018-01-23 14:43:58 +0200 (Tue, 23 Jan 2018) $
#$Revision: 205493 $
#$URL: file:///home/coder/svn-repositories/cod/cif/7/22/19/7221940.cif $
#------------------------------------------------------------------------------
#
# This file is available in the Crystallography Open Database (COD),
# http://www.crystallography.net/
#
# All data on this site have been placed in the public domain by the
# contributors.
#
data_7221940
loop_
_publ_author_name
'Shihai Miao'
'Zhiguo Xia'
'Maxim S. Molokeev'
'Mingyue Chen'
'Jie Zhang'
'Quanlin Liu'
_publ_section_title
;
 Effect of Al/Si Substitution on the Structure and Luminescence Properties
 of CaSrSiO4:Ce3+ Phosphor: Analysis based on the Polyhedral Distortion
;
_journal_issue                   18
_journal_name_full               'Journal of Materials Chemistry C'
_journal_page_first              4616
_journal_page_last               4622
_journal_paper_doi               10.1039/C5TC00339C
_journal_volume                  3
_journal_year                    2015
_chemical_formula_sum
'Al0.05 Ca0.475 Ce0.025 Li0.025 O2 Si0.45 Sr0.475'
_chemical_formula_weight         110.47
_space_group_IT_number           62
_symmetry_cell_setting           orthorhombic
_symmetry_space_group_name_Hall  '-P 2ac 2n'
_symmetry_space_group_name_H-M   'P n m a'
_cell_angle_alpha                90
_cell_angle_beta                 90
_cell_angle_gamma                90
_cell_formula_units_Z            8
_cell_length_a                   6.94901(31)
_cell_length_b                   5.59224(27)
_cell_length_c                   9.46525(43)
_cell_measurement_temperature    300
_cell_volume                     367.82(3)
_diffrn_ambient_temperature      300
_diffrn_measurement_device_type
;
D8 ADVANCE Bruker
;
_diffrn_radiation_monochromator  none
_diffrn_radiation_probe          x-ray
_diffrn_radiation_type
;
 Cu K\a~1~~2~
;
_exptl_absorpt_coefficient_mu    38.037
_exptl_crystal_density_diffrn    3.984277
_pd_char_colour
;
colourless
;
_pd_meas_2theta_range_inc        0.02
_pd_meas_2theta_range_max        120
_pd_meas_2theta_range_min        10
_pd_meas_scan_method             step
_pd_proc_ls_pref_orient_corr
;
no preferred orientation
;
_pd_proc_ls_profile_function     PearsonVII
_pd_proc_ls_prof_R_factor        8.795
_pd_proc_ls_prof_wR_expected     9.537
_pd_proc_ls_prof_wR_factor       11.544
_pd_proc_number_of_points        5500
_pd_spec_mount_mode              reflection
_refine_ls_goodness_of_fit_all   1.210
_refine_ls_R_I_factor            2.73
_refine_ls_shift/su_max          0.01000
_cod_data_source_file            Ca0p95Sr0p95Li0p05Ce0p05Si0p9Al0p1O4.cif
_cod_data_source_block           a
_cod_original_cell_volume        367.824(29)
_cod_original_sg_symbol_Hall
;
-P 2ac 2n
;
_cod_original_sg_symbol_H-M      Pnma
_cod_original_formula_sum
;
Al0.05 Ca0.475 Ce0.025 Li0.025 O2 Si0.45 Sr0.475
;
_cod_database_code               7221940
_cod_database_fobs_code          7221940
loop_
_symmetry_equiv_pos_as_xyz
'x, y, z'
'-x, -y, -z'
'-x, y+1/2, -z'
'-x+1/2, -y, z+1/2'
'-x+1/2, y+1/2, z+1/2'
'x, -y+1/2, z'
'x+1/2, -y+1/2, -z+1/2'
'x+1/2, y, -z+1/2'
loop_
_atom_site_label
_atom_site_type_symbol
_atom_site_fract_x
_atom_site_fract_y
_atom_site_fract_z
_atom_site_occupancy
_atom_site_B_iso_or_equiv
Ca1 Ca 0.33720(31) 0.247(12) 0.57811(25) 0.1136(38) 1.002(96)
Sr1 Sr 0.33720(31) 0.247(12) 0.57811(25) 0.3614(38) 1.002(96)
Ce1 Ce 0.33720(31) 0.247(12) 0.57811(25) 0.0125 1.002(96)
Li1 Li 0.33720(31) 0.247(12) 0.57811(25) 0.0125 1.002(96)
Ca2 Ca 0.99340(39) 0.2698(25) 0.29931(31) 0.3614(38) 1.00(18)
Sr2 Sr 0.99340(39) 0.2698(25) 0.29931(31) 0.1136(38) 1.00(18)
Ce2 Ce 0.99340(39) 0.2698(25) 0.29931(31) 0.0125 1.00(18)
Li2 Li 0.99340(39) 0.2698(25) 0.29931(31) 0.0125 1.00(18)
Si Si 0.77669(75) 0.25 0.58481(83) 0.9 1.16(16)
Al Al 0.77669(75) 0.25 0.58481(83) 0.1 1.16(16)
O1 O 1.0042(18) 0.3199(27) 0.5564(12) 0.5 1.50(21)
O2 O 0.7367(36) 0.0142(48) 0.6880(26) 0.5 1.50(21)
O3 O 0.6549(18) 0.2063(36) 0.4327(13) 0.5 1.50(21)
O4 O 0.6990(38) 0.4846(49) 0.6561(26) 0.5 1.50(21)
loop_
_diffrn_radiation_wavelength
_diffrn_radiation_wavelength_wt
1.5406 1.0000
1.5443 0.5000
loop_
_geom_angle_atom_site_label_1
_geom_angle_atom_site_label_2
_geom_angle_atom_site_label_3
_geom_angle
_geom_angle_site_symmetry_1
_geom_angle_site_symmetry_3
O1 Ca1 O2 80.84(93) 1_455 2_656
O1 Ca1 O2 70.7(16) 1_455 3_656
O1 Ca1 O2 74.3(15) 1_455 7_456
O1 Ca1 O2 84.24(87) 1_455 8_456
O1 Ca1 O3 143.1(18) 1_455 1_555
O1 Ca1 O3 101.1(17) 1_455 2_656
O1 Ca1 O3 80.9(20) 1_455 2_666
O1 Ca1 O3 81.1(21) 1_455 3_656
O1 Ca1 O3 100.8(17) 1_455 3_646
O1 Ca1 O3 139.9(18) 1_455 6_555
O1 Ca1 O4 141.6(37) 1_455 1_555
O1 Ca1 O4 74.9(16) 1_455 2_666
O1 Ca1 O4 86.1(94) 1_455 3_646
O1 Ca1 O4 80.38(88) 1_455 7_456
O1 Ca1 O4 71.5(14) 1_455 8_456
O1 Ca1 O2 71.1(15) 6_455 2_656
O1 Ca1 O2 80.57(96) 6_455 3_656
O1 Ca1 O2 83.97(90) 6_455 7_456
O1 Ca1 O2 74.7(14) 6_455 8_456
O1 Ca1 O3 140.5(17) 6_455 1_555
O1 Ca1 O3 81.9(20) 6_455 2_656
O1 Ca1 O3 100.1(17) 6_455 2_666
O1 Ca1 O3 100.2(17) 6_455 3_656
O1 Ca1 O3 81.7(20) 6_455 3_646
O1 Ca1 O3 143.2(18) 6_455 6_555
O1 Ca1 O4 85.68(97) 6_455 2_666
O1 Ca1 O4 75.4(15) 6_455 3_646
O1 Ca1 O4 142.9(38) 6_455 6_555
O1 Ca1 O4 71.9(14) 6_455 7_456
O1 Ca1 O4 80.15(90) 6_455 8_456
O2 Ca1 O2 59.8(21) 2_656 3_656
O2 Ca1 O2 114.9(23) 2_656 8_456
O2 Ca1 O3 69.8(14) 2_656 1_555
O2 Ca1 O3 58.4(38) 2_656 2_656
O2 Ca1 O3 117.9(27) 2_656 2_666
O2 Ca1 O3 117.6(26) 2_656 3_656
O2 Ca1 O3 58.7(37) 2_656 3_646
O2 Ca1 O3 75.4(11) 2_656 6_555
O2 Ca1 O4 125.9(26) 2_656 1_555
O2 Ca1 O4 63.7(19) 2_656 2_666
O2 Ca1 O4 98.4(15) 2_656 6_555
O2 Ca1 O4 116.6(22) 2_656 7_456
O2 Ca1 O4 151.3(61) 2_656 8_456
O2 Ca1 O2 113.9(23) 3_656 7_456
O2 Ca1 O3 75.1(11) 3_656 1_555
O2 Ca1 O3 118.1(27) 3_656 2_656
O2 Ca1 O3 58.2(37) 3_656 2_666
O2 Ca1 O3 57.9(39) 3_656 3_656
O2 Ca1 O3 118.5(27) 3_656 3_646
O2 Ca1 O3 69.5(15) 3_656 6_555
O2 Ca1 O4 97.7(15) 3_656 1_555
O2 Ca1 O4 63.7(19) 3_656 3_646
O2 Ca1 O4 125.8(26) 3_656 6_555
O2 Ca1 O4 151.1(61) 3_656 7_456
O2 Ca1 O4 115.6(22) 3_656 8_456
O2 Ca1 O2 59.2(22) 7_456 8_456
O2 Ca1 O3 134.4(28) 7_456 1_555
O2 Ca1 O3 122.5(32) 7_456 2_656
O2 Ca1 O3 62.2(35) 7_456 2_666
O2 Ca1 O3 62.6(35) 7_456 3_656
O2 Ca1 O3 122.1(32) 7_456 3_646
O2 Ca1 O3 127.3(24) 7_456 6_555
O2 Ca1 O4 77.9(17) 7_456 1_555
O2 Ca1 O4 112.3(23) 7_456 2_666
O2 Ca1 O4 103.7(11) 7_456 6_555
O2 Ca1 O4 55.7(24) 7_456 7_456
O2 Ca1 O3 128.1(24) 8_456 1_555
O2 Ca1 O3 63.3(35) 8_456 2_656
O2 Ca1 O3 121.4(31) 8_456 2_666
O2 Ca1 O3 121.8(31) 8_456 3_656
O2 Ca1 O3 62.9(34) 8_456 3_646
O2 Ca1 O3 135.1(28) 8_456 6_555
O2 Ca1 O4 103.7(11) 8_456 1_555
O2 Ca1 O4 113.4(24) 8_456 3_646
O2 Ca1 O4 78.4(17) 8_456 6_555
O2 Ca1 O4 55.6(24) 8_456 8_456
O3 Ca1 O3 82.7(18) 1_555 2_656
O3 Ca1 O3 93.1(15) 1_555 2_666
O3 Ca1 O3 92.8(15) 1_555 3_656
O3 Ca1 O3 83.1(17) 1_555 3_646
O3 Ca1 O4 56.5(19) 1_555 1_555
O3 Ca1 O4 72.1(13) 1_555 2_666
O3 Ca1 O4 66.1(17) 1_555 3_646
O3 Ca1 O4 50.8(23) 1_555 6_555
O3 Ca1 O4 132.7(25) 1_555 7_456
O3 Ca1 O4 138.6(30) 1_555 8_456
O3 Ca1 O3 93.5(14) 2_656 6_555
O3 Ca1 O4 116.3(25) 2_656 1_555
O3 Ca1 O4 121.8(31) 2_656 2_666
O3 Ca1 O4 54.5(45) 2_656 3_646
O3 Ca1 O4 63.2(33) 2_656 6_555
O3 Ca1 O4 66.9(30) 2_656 7_456
O3 Ca1 O4 118.9(27) 2_656 8_456
O3 Ca1 O3 82.4(18) 2_666 6_555
O3 Ca1 O4 62.7(33) 2_666 1_555
O3 Ca1 O4 54.3(44) 2_666 2_666
O3 Ca1 O4 121.5(31) 2_666 3_646
O3 Ca1 O4 115.8(25) 2_666 6_555
O3 Ca1 O4 117.8(26) 2_666 7_456
O3 Ca1 O4 65.9(29) 2_666 8_456
O3 Ca1 O3 82.1(18) 3_656 6_555
O3 Ca1 O4 62.6(34) 3_656 1_555
O3 Ca1 O4 54.1(45) 3_656 2_666
O3 Ca1 O4 121.2(31) 3_656 3_646
O3 Ca1 O4 115.7(24) 3_656 6_555
O3 Ca1 O4 118.3(27) 3_656 7_456
O3 Ca1 O4 66.3(30) 3_656 8_456
O3 Ca1 O3 93.8(15) 3_646 6_555
O3 Ca1 O4 116.4(25) 3_646 1_555
O3 Ca1 O4 122.1(32) 3_646 2_666
O3 Ca1 O4 54.9(43) 3_646 3_646
O3 Ca1 O4 63.3(32) 3_646 6_555
O3 Ca1 O4 66.5(29) 3_646 7_456
O3 Ca1 O4 118.4(27) 3_646 8_456
O3 Ca1 O4 50.5(24) 6_555 1_555
O3 Ca1 O4 65.7(18) 6_555 2_666
O3 Ca1 O4 72.4(13) 6_555 3_646
O3 Ca1 O4 56.7(19) 6_555 6_555
O3 Ca1 O4 139.3(30) 6_555 7_456
O3 Ca1 O4 131.8(25) 6_555 8_456
O4 Ca1 O4 92.1(16) 1_555 2_666
O4 Ca1 O4 122.5(24) 1_555 3_646
O4 Ca1 O4 53.2(26) 1_555 6_555
O4 Ca1 O4 105.1(11) 1_555 7_456
O4 Ca1 O4 82.1(14) 1_555 8_456
O4 Ca1 O4 67.3(17) 2_666 3_646
O4 Ca1 O4 122.4(24) 2_666 6_555
O4 Ca1 O4 114.4(23) 2_666 8_456
O4 Ca1 O4 92.7(16) 3_646 6_555
O4 Ca1 O4 115.5(23) 3_646 7_456
O4 Ca1 O4 82.6(14) 6_555 7_456
O4 Ca1 O4 105.1(11) 6_555 8_456
O4 Ca1 O4 51.9(26) 7_456 8_456
O1 Ca2 O1 52.7(12) 1_555 2_766
O1 Ca2 O1 68.07(74) 1_555 3_746
O1 Ca2 O2 90.11(68) 1_555 2_756
O1 Ca2 O2 81.76(78) 1_555 3_756
O1 Ca2 O2 120.9(13) 1_555 4_654
O1 Ca2 O2 113.5(11) 1_555 5_654
O1 Ca2 O3 64.93(65) 1_555 1_555
O1 Ca2 O3 63.5(68) 1_555 6_555
O1 Ca2 O3 149.6(19) 1_555 7_555
O1 Ca2 O3 151.4(20) 1_555 8_555
O1 Ca2 O4 75.58(82) 1_555 2_766
O1 Ca2 O4 83.57(67) 1_555 3_746
O1 Ca2 O4 121.6(13) 1_555 4_664
O1 Ca2 O4 129.2(17) 1_555 5_644
O1 Ca2 O1 120.7(10) 2_766 3_746
O1 Ca2 O1 70.88(67) 2_766 6_555
O1 Ca2 O2 121.7(14) 2_766 2_756
O1 Ca2 O2 57.5(16) 2_766 3_756
O1 Ca2 O2 140.3(25) 2_766 4_654
O1 Ca2 O2 74.6(10) 2_766 5_654
O1 Ca2 O3 83.05(55) 2_766 1_555
O1 Ca2 O3 73.9(69) 2_766 6_555
O1 Ca2 O3 113.92(85) 2_766 7_555
O1 Ca2 O3 124.8(11) 2_766 8_555
O1 Ca2 O4 56.8(16) 2_766 2_766
O1 Ca2 O4 115.1(11) 2_766 3_746
O1 Ca2 O4 78.24(96) 2_766 4_664
O1 Ca2 O4 146.5(32) 2_766 5_644
O1 Ca2 O1 49.9(13) 3_746 6_555
O1 Ca2 O2 53.5(17) 3_746 2_756
O1 Ca2 O2 119.2(13) 3_746 3_756
O1 Ca2 O2 69.2(11) 3_746 4_654
O1 Ca2 O2 136.7(23) 3_746 5_654
O1 Ca2 O3 70.46(76) 3_746 1_555
O1 Ca2 O3 79.85(59) 3_746 6_555
O1 Ca2 O3 117.98(94) 3_746 7_555
O1 Ca2 O3 107.01(73) 3_746 8_555
O1 Ca2 O4 112.7(11) 3_746 2_766
O1 Ca2 O4 53.3(17) 3_746 3_746
O1 Ca2 O4 142.5(28) 3_746 4_664
O1 Ca2 O4 72.5(11) 3_746 5_644
O1 Ca2 O2 78.5(81) 6_555 2_756
O1 Ca2 O2 92.51(70) 6_555 3_756
O1 Ca2 O2 107.77(92) 6_555 4_654
O1 Ca2 O2 125.2(15) 6_555 5_654
O1 Ca2 O3 62.67(71) 6_555 1_555
O1 Ca2 O3 64.9(66) 6_555 6_555
O1 Ca2 O3 150.2(19) 6_555 7_555
O1 Ca2 O3 145.1(16) 6_555 8_555
O1 Ca2 O4 85.53(66) 6_555 2_766
O1 Ca2 O4 72.78(88) 6_555 3_746
O1 Ca2 O4 134.5(19) 6_555 4_664
O1 Ca2 O4 114.9(11) 6_555 5_644
O2 Ca2 O2 76.2(11) 2_756 3_756
O2 Ca2 O2 95.65(97) 2_756 4_654
O2 Ca2 O3 123.9(15) 2_756 1_555
O2 Ca2 O3 132.8(19) 2_756 6_555
O2 Ca2 O3 74.45(89) 2_756 7_555
O2 Ca2 O3 66.9(11) 2_756 8_555
O2 Ca2 O4 72.8(11) 2_756 2_766
O2 Ca2 O4 147.1(38) 2_756 4_664
O2 Ca2 O4 91.29(96) 2_756 5_644
O2 Ca2 O2 103.3(11) 3_756 5_654
O2 Ca2 O3 139.3(23) 3_756 1_555
O2 Ca2 O3 131.1(18) 3_756 6_555
O2 Ca2 O3 69.4(10) 3_756 7_555
O2 Ca2 O3 76.46(86) 3_756 8_555
O2 Ca2 O4 72.6(11) 3_756 3_746
O2 Ca2 O4 98.4(11) 3_756 4_664
O2 Ca2 O4 147.2(38) 3_756 5_644
O2 Ca2 O2 75.2(11) 4_654 5_654
O2 Ca2 O3 63.4(12) 4_654 1_555
O2 Ca2 O3 70.51(96) 4_654 6_555
O2 Ca2 O3 87.14(72) 4_654 7_555
O2 Ca2 O3 79.94(80) 4_654 8_555
O2 Ca2 O4 101.4(10) 4_654 3_746
O2 Ca2 O4 76.3(11) 4_654 4_664
O2 Ca2 O3 72.12(93) 5_654 1_555
O2 Ca2 O3 65.4(11) 5_654 6_555
O2 Ca2 O3 83.06(77) 5_654 7_555
O2 Ca2 O3 89.67(72) 5_654 8_555
O2 Ca2 O4 109.1(12) 5_654 2_766
O2 Ca2 O4 76.3(11) 5_654 5_644
O3 Ca2 O3 145.2(17) 1_555 7_555
O3 Ca2 O3 142.1(15) 1_555 8_555
O3 Ca2 O4 135.9(21) 1_555 2_766
O3 Ca2 O4 122.7(14) 1_555 3_746
O3 Ca2 O4 81.5(79) 1_555 4_664
O3 Ca2 O4 72.7(95) 1_555 5_644
O3 Ca2 O3 144.8(16) 6_555 7_555
O3 Ca2 O3 145.1(17) 6_555 8_555
O3 Ca2 O4 128.8(17) 6_555 2_766
O3 Ca2 O4 130.7(18) 6_555 3_746
O3 Ca2 O4 75.07(90) 6_555 4_664
O3 Ca2 O4 79.41(80) 6_555 5_644
O3 Ca2 O4 74.91(86) 7_555 2_766
O3 Ca2 O4 79.12(76) 7_555 3_746
O3 Ca2 O4 73.36(94) 7_555 4_664
O3 Ca2 O4 78.12(82) 7_555 5_644
O3 Ca2 O4 81.18(74) 8_555 2_766
O3 Ca2 O4 72.36(92) 8_555 3_746
O3 Ca2 O4 80.27(80) 8_555 4_664
O3 Ca2 O4 70.73(99) 8_555 5_644
O4 Ca2 O4 68.4(13) 2_766 3_746
O4 Ca2 O4 104.8(11) 2_766 4_664
O4 Ca2 O4 151.5(45) 2_766 5_644
O4 Ca2 O4 152.5(47) 3_746 4_664
O4 Ca2 O4 97.59(97) 3_746 5_644
O4 Ca2 O4 75.8(11) 4_664 5_644
O1 Si O1 27.4(26) 1_555 6_555
O1 Si O2 116.3(14) 1_555 1_555
O1 Si O2 93.9(10) 1_555 6_555
O1 Si O3 112.06(86) 1_555 1_555
O1 Si O3 107.88(79) 1_555 6_555
O1 Si O4 101.6(12) 1_555 1_555
O1 Si O4 126.6(19) 1_555 6_555
loop_
_geom_bond_atom_site_label_1
_geom_bond_atom_site_label_2
_geom_bond_distance
_geom_bond_site_symmetry_2
Ca1 O1 2.359(17) 1_455
Ca1 O1 2.353(17) 6_455
Ca1 O2 2.957(42) 2_656
Ca1 O2 2.973(42) 3_656
Ca1 O2 2.678(42) 7_456
Ca1 O2 2.662(41) 8_456
Ca1 O3 2.612(14) .
Ca1 O3 2.538(70) 2_656
Ca1 O3 3.059(70) 2_666
Ca1 O3 2.571(70) 3_656
Ca1 O3 3.026(70) 3_646
Ca1 O3 2.615(14) 6_555
Ca1 O4 2.938(40) .
Ca1 O4 2.689(45) 2_666
Ca1 O4 2.670(45) 3_646
Ca1 O4 2.923(40) 6_555
Ca1 O4 2.988(39) 7_456
Ca1 O4 3.003(39) 8_456
Ca2 O1 2.451(12) .
Ca2 O1 2.670(19) 2_766
Ca2 O1 2.863(19) 3_746
Ca2 O1 2.486(12) 6_555
Ca2 O2 2.461(27) 2_756
Ca2 O2 2.324(27) 3_756
Ca2 O2 2.488(27) 4_654
Ca2 O2 2.353(27) 5_654
Ca2 O3 2.693(13) .
Ca2 O3 2.673(13) 6_555
Ca2 O3 2.470(13) 7_555
Ca2 O3 2.492(13) 8_555
Ca2 O4 2.576(28) 2_766
Ca2 O4 2.700(28) 3_746
Ca2 O4 2.348(28) 4_664
Ca2 O4 2.484(28) 5_644
Si O1 1.651(14) .
Si O2 1.664(26) .
Si O3 1.688(14) .
Si O4 1.571(27) .
