#------------------------------------------------------------------------------
#$Date: 2016-02-13 21:28:24 +0200 (Sat, 13 Feb 2016) $
#$Revision: 176429 $
#$URL: svn://www.crystallography.net/cod/cif/7/22/14/7221484.cif $
#------------------------------------------------------------------------------
#
# This file is available in the Crystallography Open Database (COD),
# http://www.crystallography.net/
#
# All data on this site have been placed in the public domain by the
# contributors.
#
data_7221484
loop_
_publ_author_name
'Kuang, X.'
'Allix, M.M.B.'
'Iddles, D.M.'
'Claridge, J.B.'
'Niu, H.J.'
'Rosseinsky, M.J.'
'Ibberson, R.M.'
_publ_section_title
;
 Crystal structure, microwave dielectric properties and AC conductivity of
 B-cation hexagonal perovskites La5 M(x) Ti(4-x) O15 (x = 0.5, 1; M = Zn,
 Mg, Ga, Al)
;
_journal_name_full               'Journal of Materials Chemistry'
_journal_page_first              1038
_journal_page_last               1045
_journal_volume                  16
_journal_year                    2006
_chemical_formula_sum            'Al La5 O15 Ti3'
_chemical_name_systematic        'La5 Al Ti3 O15'
_space_group_IT_number           165
_symmetry_space_group_name_Hall  '-P 3 2"c'
_symmetry_space_group_name_H-M   'P -3 c 1'
_cell_angle_alpha                90
_cell_angle_beta                 90
_cell_angle_gamma                120
_cell_formula_units_Z            2
_cell_length_a                   5.519616
_cell_length_b                   5.519616
_cell_length_c                   21.97003
_cell_volume                     579.668
_citation_journal_id_ASTM        JMACEP
_cod_data_source_file            Kuang_JMACEP_2006_794.cif
_cod_data_source_block           Al1La5O15Ti3
_cod_original_cell_volume        579.6676
_cod_original_formula_sum        'Al1 La5 O15 Ti3'
_cod_database_code               7221484
loop_
_symmetry_equiv_pos_as_xyz
x,y,z
-y,x-y,z
-x+y,-x,z
y,x,-z+1/2
-x,-x+y,-z+1/2
x-y,-y,-z+1/2
-x,-y,-z
y,-x+y,-z
x-y,x,-z
-y,-x,z-1/2
x,x-y,z-1/2
-x+y,y,z-1/2
loop_
_atom_site_label
_atom_site_type_symbol
_atom_site_fract_x
_atom_site_fract_y
_atom_site_fract_z
_atom_site_occupancy
_atom_site_U_iso_or_equiv
Ti2 Ti+4 0.6667 0.3333 0.3027 0.606 0.0
La1 La+3 0.6667 0.3333 0.4623 1 0.0
O1 O-2 0.89184 0.22944 0.55326 1 0.0
La3 La+3 0 0 0.25 1 0.0
O3 O-2 0.54771 0 0.25 1 0.0
O2 O-2 0.32978 0.11662 0.34778 1 0.0
Ti1 Ti+4 0 0 0.40828 0.894 0.0
La2 La+3 0.3333 0.6667 0.35546 1 0.0
Al1 Al+3 0 0 0.40828 0.106 0.0
Al2 Al+3 0.6667 0.3333 0.3027 0.394 0.0
