#------------------------------------------------------------------------------
#$Date: 2018-09-27 07:13:35 +0300 (Thu, 27 Sep 2018) $
#$Revision: 211196 $
#$URL: file:///home/coder/svn-repositories/cod/cif/7/22/12/7221292.cif $
#------------------------------------------------------------------------------
#
# This file is available in the Crystallography Open Database (COD),
# http://www.crystallography.net/
#
# All data on this site have been placed in the public domain by the
# contributors.
#
data_7221292
loop_
_publ_author_name
'Gregory, D.H.'
'Mawdsley, P.R.'
'Barker, S.J.'
'Daniell, W.'
'Weston, D.P.'
_publ_section_title
;
 Synthesis, stoichiometry and structure of the quaternary scandium cuprate
 Ba3 Cu3 Sc4 O12 and of 334-phase solid solution members Ba3Cu3 Sc4-x Inx
 O12 (0 <= x <= 4)
;
_journal_name_full               'Journal of Materials Chemistry'
_journal_page_first              806
_journal_page_last               814
_journal_volume                  11
_journal_year                    2001
_chemical_formula_sum            'Ba3 Cu3 In4 O12'
_space_group_IT_number           140
_symmetry_space_group_name_Hall  '-I 4 2c'
_symmetry_space_group_name_H-M   'I 4/m c m'
_cell_angle_alpha                90
_cell_angle_beta                 90
_cell_angle_gamma                90
_cell_formula_units_Z            4
_cell_length_a                   12.1283
_cell_length_b                   12.1283
_cell_length_c                   8.5106
_cell_volume                     1251.872
_citation_journal_id_ASTM        JMACEP
_cod_data_source_file            Gregory_JMACEP_2001_1426.cif
_cod_data_source_block           Ba3Cu3In4O12
_cod_database_code               7221292
loop_
_symmetry_equiv_pos_as_xyz
x,y,z
-y,x,z
-x,-y,z
y,-x,z
x,-y,-z+1/2
y,x,-z+1/2
-x,y,-z+1/2
-y,-x,-z+1/2
-x,-y,-z
y,-x,-z
x,y,-z
-y,x,-z
-x,y,z-1/2
-y,-x,z-1/2
x,-y,z-1/2
y,x,z-1/2
x+1/2,y+1/2,z+1/2
-y+1/2,x+1/2,z+1/2
-x+1/2,-y+1/2,z+1/2
y+1/2,-x+1/2,z+1/2
x+1/2,-y+1/2,-z+1
y+1/2,x+1/2,-z+1
-x+1/2,y+1/2,-z+1
-y+1/2,-x+1/2,-z+1
-x+1/2,-y+1/2,-z+1/2
y+1/2,-x+1/2,-z+1/2
x+1/2,y+1/2,-z+1/2
-y+1/2,x+1/2,-z+1/2
-x+1/2,y+1/2,z
-y+1/2,-x+1/2,z
x+1/2,-y+1/2,z
y+1/2,x+1/2,z
loop_
_atom_site_label
_atom_site_type_symbol
_atom_site_fract_x
_atom_site_fract_y
_atom_site_fract_z
_atom_site_occupancy
_atom_site_U_iso_or_equiv
In1 In+3 0.2426 0 0.25 1 0.0
O3 O-2 0.233 0.4986 0 1 0.0
O1 O-2 0.1183 0.6183 0.232 1 0.0
Ba2 Ba+2 0.28 0.78 0 1 0.0
Cu1 Cu+2 0.5 0 0.25 1 0.0
Ba1 Ba+2 0 0 0 1 0.0
Cu2 Cu+2 0.1057 0.6057 0 1 0.0
O2 O-2 0.1289 0.1289 0.25 1 0.0
