#------------------------------------------------------------------------------
#$Date: 2018-09-27 07:13:35 +0300 (Thu, 27 Sep 2018) $
#$Revision: 211196 $
#$URL: file:///home/coder/svn-repositories/cod/cif/7/22/14/7221491.cif $
#------------------------------------------------------------------------------
#
# This file is available in the Crystallography Open Database (COD),
# http://www.crystallography.net/
#
# All data on this site have been placed in the public domain by the
# contributors.
#
data_7221491
loop_
_publ_author_name
'de la Calle, C.'
'Alonso, J.A.'
'Fernandez-Diaz, M.T.'
_publ_section_title
;
 Polymorphism of Ba(1-x) Sr(x) Co O(3-delta) (0 <= x <= 1) perovskites: a
 thermal and structural study by neutron diffraction
;
_journal_name_full
;
Zeitschrift fuer Naturforschung, Teil B. Anorganische Chemie, Organische 
Chemie (42,1987-)
;
_journal_page_first              647
_journal_page_last               654
_journal_volume                  63
_journal_year                    2008
_chemical_formula_sum            'Ba Co0.998 O2.782'
_space_group_IT_number           194
_symmetry_space_group_name_Hall  '-P 6c 2c'
_symmetry_space_group_name_H-M   'P 63/m m c'
_cell_angle_alpha                90
_cell_angle_beta                 90
_cell_angle_gamma                120
_cell_formula_units_Z            2
_cell_length_a                   5.6472
_cell_length_b                   5.6472
_cell_length_c                   4.7582
_cell_volume                     131.413
_citation_journal_id_ASTM        ZNBSEN
_cod_data_source_file            delaCalle_ZNBSEN_2008_1512.cif
_cod_data_source_block           Ba1Co0.998O2.782
_cod_original_cell_volume        131.4134
_cod_original_formula_sum        'Ba1 Co0.998 O2.782'
_cod_database_code               7221491
loop_
_symmetry_equiv_pos_as_xyz
x,y,z
x-y,x,z+1/2
-y,x-y,z
-x,-y,z+1/2
-x+y,-x,z
y,-x+y,z+1/2
-y,-x,-z+1/2
x-y,-y,-z
x,x-y,-z+1/2
y,x,-z
-x+y,y,-z+1/2
-x,-x+y,-z
-x,-y,-z
-x+y,-x,-z-1/2
y,-x+y,-z
x,y,-z-1/2
x-y,x,-z
-y,x-y,-z-1/2
y,x,z-1/2
-x+y,y,z
-x,-x+y,z-1/2
-y,-x,z
x-y,-y,z-1/2
x,x-y,z
loop_
_atom_site_label
_atom_site_type_symbol
_atom_site_fract_x
_atom_site_fract_y
_atom_site_fract_z
_atom_site_occupancy
_atom_site_U_iso_or_equiv
Co1 Co+3 0 0 0 1 0.0
O1 O-2 0.1502 -0.1502 0.25 0.927 0.0
Ba1 Ba+2 0.3333 0.6667 0.75 1 0.0
