#------------------------------------------------------------------------------
#$Date: 2016-02-13 21:28:24 +0200 (Sat, 13 Feb 2016) $
#$Revision: 176429 $
#$URL: svn://www.crystallography.net/cod/cif/7/22/10/7221082.cif $
#------------------------------------------------------------------------------
#
# This file is available in the Crystallography Open Database (COD),
# http://www.crystallography.net/
#
# All data on this site have been placed in the public domain by the
# contributors.
#
data_7221082
loop_
_publ_author_name
'Toda, K.'
'Teranishi, T.'
'Takahashi, M.'
'Ye, Z.-G.'
'Sato, M.'
'Hinatsu, Y.'
_publ_section_title
;
 Synthesis and structure determination of reduced tantalates, Li2 La Ta2
 O7, Li2 Ca2 Ta3 O10 and Na2 Ca2 Ta3 O10, with a layered perovskite
 structure
;
_journal_name_full               'Journal of Materials Chemistry'
_journal_page_first              799
_journal_page_last               803
_journal_volume                  9
_journal_year                    1998
_chemical_formula_sum            'La Li2 O7 Ta2'
_chemical_name_systematic        'Li2 La (Ta2 O7)'
_space_group_IT_number           139
_symmetry_space_group_name_Hall  '-I 4 2'
_symmetry_space_group_name_H-M   'I 4/m m m'
_cell_angle_alpha                90
_cell_angle_beta                 90
_cell_angle_gamma                90
_cell_formula_units_Z            2
_cell_length_a                   3.925
_cell_length_b                   3.925
_cell_length_c                   19.089
_cell_volume                     294.078
_citation_journal_id_ASTM        JMACEP
_cod_data_source_file            Toda_JMACEP_1998_160.cif
_cod_data_source_block           La1Li2O7Ta2
_cod_original_formula_sum        'La1 Li2 O7 Ta2'
_cod_database_code               7221082
loop_
_symmetry_equiv_pos_as_xyz
x,y,z
-y,x,z
-x,-y,z
y,-x,z
x,-y,-z
y,x,-z
-x,y,-z
-y,-x,-z
-x,-y,-z
y,-x,-z
x,y,-z
-y,x,-z
-x,y,z
-y,-x,z
x,-y,z
y,x,z
x+1/2,y+1/2,z+1/2
-y+1/2,x+1/2,z+1/2
-x+1/2,-y+1/2,z+1/2
y+1/2,-x+1/2,z+1/2
x+1/2,-y+1/2,-z+1/2
y+1/2,x+1/2,-z+1/2
-x+1/2,y+1/2,-z+1/2
-y+1/2,-x+1/2,-z+1/2
-x+1/2,-y+1/2,-z+1/2
y+1/2,-x+1/2,-z+1/2
x+1/2,y+1/2,-z+1/2
-y+1/2,x+1/2,-z+1/2
-x+1/2,y+1/2,z+1/2
-y+1/2,-x+1/2,z+1/2
x+1/2,-y+1/2,z+1/2
y+1/2,x+1/2,z+1/2
loop_
_atom_site_label
_atom_site_type_symbol
_atom_site_fract_x
_atom_site_fract_y
_atom_site_fract_z
_atom_site_occupancy
_atom_site_U_iso_or_equiv
O2 O-2 0 0 0.288 1 0.0
O3 O-2 0 0 0.5 1 0.0
Li1 Li+1 0 0.5 0.25 1 0.0
O1 O-2 0 0.5 0.098 1 0.0
Ta1 Ta+4 0 0 0.3872 1 0.0
La1 La+3 0 0 0 1 0.0
