#------------------------------------------------------------------------------
#$Date: 2016-02-13 21:28:24 +0200 (Sat, 13 Feb 2016) $
#$Revision: 176429 $
#$URL: svn://www.crystallography.net/cod/cif/7/22/23/7222311.cif $
#------------------------------------------------------------------------------
#
# This file is available in the Crystallography Open Database (COD),
# http://www.crystallography.net/
#
# All data on this site have been placed in the public domain by the
# contributors.
#
data_7222311
loop_
_publ_author_name
'Cussen, E.J.'
'Battle, P.D.'
_publ_section_title
;
 The influence of structural disorder on the magnetic properties of Sr2
 Fe1-x Gax Ta O6 (0 <= x <= 1)
;
_journal_name_full               'Journal of Materials Chemistry'
_journal_page_first              1210
_journal_page_last               1214
_journal_volume                  13
_journal_year                    2003
_chemical_formula_sum            'Fe0.45 Ga0.05 O3 Sr Ta0.5'
_chemical_name_systematic        'Sr (Fe0.45 Ga0.05 Ta0.5) O3'
_space_group_IT_number           221
_symmetry_space_group_name_Hall  '-P 4 2 3'
_symmetry_space_group_name_H-M   'P m -3 m'
_cell_angle_alpha                90
_cell_angle_beta                 90
_cell_angle_gamma                90
_cell_formula_units_Z            1
_cell_length_a                   3.9657
_cell_length_b                   3.9657
_cell_length_c                   3.9657
_cell_volume                     62.368
_citation_journal_id_ASTM        JMACEP
_cod_data_source_file            Cussen_JMACEP_2003_386.cif
_cod_data_source_block           Fe0.45Ga0.05O3Sr1Ta0.5
_cod_original_cell_volume        62.36767
_cod_original_formula_sum        'Fe0.45 Ga0.05 O3 Sr1 Ta0.5'
_cod_database_code               7222311
loop_
_symmetry_equiv_pos_as_xyz
x,y,z
-y,x,z
-x,-y,z
y,-x,z
x,-y,-z
y,x,-z
-x,y,-z
-y,-x,-z
z,x,y
-x,z,y
-z,-x,y
x,-z,y
z,-x,-y
x,z,-y
-z,x,-y
-x,-z,-y
y,z,x
y,-z,-x
z,y,-x
-y,z,-x
-z,-y,-x
-y,-z,x
z,-y,x
-z,y,x
-x,-y,-z
y,-x,-z
x,y,-z
-y,x,-z
-x,y,z
-y,-x,z
x,-y,z
y,x,z
-z,-x,-y
x,-z,-y
z,x,-y
-x,z,-y
-z,x,y
-x,-z,y
z,-x,y
x,z,y
-y,-z,-x
-y,z,x
-z,-y,x
y,-z,x
z,y,x
y,z,-x
-z,y,-x
z,-y,-x
loop_
_atom_site_label
_atom_site_type_symbol
_atom_site_fract_x
_atom_site_fract_y
_atom_site_fract_z
_atom_site_occupancy
_atom_site_U_iso_or_equiv
Ga1 Ga+3 0.5 0.5 0.5 0.05 0.0
Ta1 Ta+5 0.5 0.5 0.5 0.5 0.0
Fe1 Fe+3 0.5 0.5 0.5 0.45 0.0
Sr1 Sr+2 0 0 0 1 0.0
O1 O-2 0 0.5 0.5 1 0.0
