#------------------------------------------------------------------------------
#$Date: 2016-05-06 03:55:48 +0300 (Fri, 06 May 2016) $
#$Revision: 182652 $
#$URL: svn://www.crystallography.net/cod/cif/7/22/45/7224572.cif $
#------------------------------------------------------------------------------
#
# This file is available in the Crystallography Open Database (COD),
# http://www.crystallography.net/
#
# All data on this site have been placed in the public domain by the
# contributors.
#
data_7224572
loop_
_publ_author_name
'Zhao, Dan'
'Ma, Fa-Xue'
'Zhang, Rui-Juan'
'Li, Fei-Fei'
'Zhang, Lei'
'Yang, Juan'
'Fan, Yun-Chang'
'Xin, Xia'
_publ_section_title
;
 Structure modulation, band structure, density of states and luminescent
 properties of columbite-type ZnNb2O6
;
_journal_issue                   16
_journal_name_full               CrystEngComm
_journal_page_first              2929
_journal_paper_doi               10.1039/C5CE01828E
_journal_volume                  18
_journal_year                    2016
_chemical_formula_sum            'Nb2.667 O8 Zn1.333'
_chemical_formula_weight         462.9
_space_group_IT_number           60
_space_group_ssg_name            Pbcn(\a00)00s
_symmetry_cell_setting           orthorhombic
_symmetry_space_group_name_Hall  '-P 2n 2ab'
_symmetry_space_group_name_H-M   'P b c n'
_cell_angle_alpha                90
_cell_angle_beta                 90
_cell_angle_gamma                90
_cell_formula_units_Z            1
_cell_length_a                   4.7283(4)
_cell_length_b                   5.7208(4)
_cell_length_c                   5.0331(5)
_cell_measurement_temperature    293
_cell_modulation_dimension       1
_cell_volume                     136.14(2)
_diffrn_ambient_temperature      293
_diffrn_measured_fraction_theta_full 1
_diffrn_measured_fraction_theta_max 1
_diffrn_measurement_device       'fine-focus sealed tube'
_diffrn_measurement_device_type  'Bruker APEX II CCD'
_diffrn_radiation_monochromator  graphite
_diffrn_radiation_probe          x-ray
_diffrn_radiation_source         'X-ray tube'
_diffrn_radiation_type           'Mo K\a'
_diffrn_radiation_wavelength     0.71073
_diffrn_reflns_av_R_equivalents  0.0267
_diffrn_reflns_av_unetI/netI     0.0154
_diffrn_reflns_limit_h_max       6
_diffrn_reflns_limit_h_min       -6
_diffrn_reflns_limit_index_m_1_max 1
_diffrn_reflns_limit_index_m_1_min -1
_diffrn_reflns_limit_k_max       7
_diffrn_reflns_limit_k_min       -7
_diffrn_reflns_limit_l_max       6
_diffrn_reflns_limit_l_min       -6
_diffrn_reflns_number            3459
_diffrn_reflns_theta_full        28.27
_diffrn_reflns_theta_max         28.27
_diffrn_reflns_theta_min         2.87
_exptl_absorpt_coefficient_mu    11.277
_exptl_absorpt_correction_T_max  0.9346
_exptl_absorpt_correction_T_min  0.7157
_exptl_absorpt_correction_type   multi-scan
_exptl_absorpt_process_details   sadabs
_exptl_crystal_colour            colorless
_exptl_crystal_density_diffrn    5.6463
_exptl_crystal_description       prism
_exptl_crystal_F_000             213
_exptl_crystal_size_max          0.20
_exptl_crystal_size_mid          0.05
_exptl_crystal_size_min          0.05
_refine_diff_density_max         0.43
_refine_diff_density_min         -0.73
_refine_ls_extinction_coef       613(19)
_refine_ls_extinction_method
'B-C type 1 Lorentzian isotropic (Becker & Coppens, 1974)'
_refine_ls_goodness_of_fit_gt    1.18
_refine_ls_goodness_of_fit_ref   1.17
_refine_ls_number_constraints    14
_refine_ls_number_parameters     31
_refine_ls_number_reflns         513
_refine_ls_number_restraints     0
_refine_ls_R_factor_all          0.0188
_refine_ls_R_factor_gt           0.0151
_refine_ls_shift/su_max          0.0084
_refine_ls_shift/su_mean         0.0021
_refine_ls_structure_factor_coef F
_refine_ls_weighting_scheme      unit
_refine_ls_wR_factor_gt          0.0136
_refine_ls_wR_factor_ref         0.0150
_reflns_number_gt                419
_reflns_number_total             513
_reflns_threshold_expression     I>3\s(I)
_cod_data_source_file            c5ce01828e2.cif
_cod_data_source_block           I
_cod_depositor_comments          'Adding full bibliography for 7224572.cif.'
_cod_database_code               7224572
_publcif_datablock.id            {688a7209-5a1a-41db-961e-8ce0f275f2f3}
_jana_cell_commen_supercell_matrix_1_1 3
_jana_cell_commen_supercell_matrix_1_2 0
_jana_cell_commen_supercell_matrix_1_3 0
_jana_cell_commen_supercell_matrix_2_1 0
_jana_cell_commen_supercell_matrix_2_2 1
_jana_cell_commen_supercell_matrix_2_3 0
_jana_cell_commen_supercell_matrix_3_1 0
_jana_cell_commen_supercell_matrix_3_2 0
_jana_cell_commen_supercell_matrix_3_3 1
_jana_cell_commen_t_section_1    0
_publcif_info_exptl_table_max_cols 4
_publcif_info_exptl_table_use_headnotes n
loop_
_space_group_symop_id
_space_group_symop_operation_xyz
1 x,y,z
2 -x+0.5,-y+0.5,z+0.5
3 -x,y,-z+0.5
4 x+0.5,-y+0.5,-z
5 -x,-y,-z
6 x+0.5,y+0.5,-z+0.5
7 x,-y,z+0.5
8 -x+0.5,y+0.5,z
loop_
_space_group_symop_ssg_id
_space_group_symop_ssg_operation_algebraic
1 x1,x2,x3,x4
2 -x1+1/2,-x2+1/2,x3+1/2,-x4+1/2
3 -x1,x2,-x3+1/2,-x4
4 x1+1/2,-x2+1/2,-x3,x4+1/2
5 -x1,-x2,-x3,-x4
6 x1+1/2,x2+1/2,-x3+1/2,x4+1/2
7 x1,-x2,x3+1/2,x4
8 -x1+1/2,x2+1/2,x3,-x4+1/2
loop_
_atom_site_label
_atom_site_type_symbol
_atom_site_fract_x
_atom_site_fract_y
_atom_site_fract_z
_atom_site_adp_type
_atom_site_U_iso_or_equiv
_atom_site_site_symmetry_multiplicity
_atom_site_occupancy
_atom_site_calc_flag
Nb1 Nb 0 0.82060(4) 0.25 Uani 0.00508(8) 4 0.6667 d
Zn1 Zn 0 0.82060(4) 0.25 Uani 0.00508(8) 4 0.3333 d
O1 O 0.2284(2) 1.1149(2) 0.4190(2) Uani 0.0060(3) 8 1 d
loop_
_atom_site_aniso_label
_atom_site_aniso_type_symbol
_atom_site_aniso_U_11
_atom_site_aniso_U_22
_atom_site_aniso_U_33
_atom_site_aniso_U_12
_atom_site_aniso_U_13
_atom_site_aniso_U_23
Nb1 Nb 0.00561(15) 0.00515(15) 0.00449(13) 0 -0.00009(8) 0
Zn1 Zn 0.00561(15) 0.00515(15) 0.00449(13) 0 -0.00009(8) 0
O1 O 0.0055(5) 0.0068(5) 0.0058(5) -0.0010(4) 0.0005(4) -0.0005(4)
loop_
_atom_site_displace_Fourier_atom_site_label
_atom_site_displace_Fourier_axis
_atom_site_displace_Fourier_wave_vector_seq_id
_atom_site_displace_Fourier_param_cos
_atom_site_displace_Fourier_param_sin
Nb1 x 1 0 0.02048(6)
Nb1 y 1 0.00488(7) 0
Nb1 z 1 0 0.00373(6)
Zn1 x 1 0 0.02048(6)
Zn1 y 1 0.00488(7) 0
Zn1 z 1 0 0.00373(6)
O1 x 1 0.0153(3) -0.0041(3)
O1 y 1 0.0066(3) -0.0076(3)
O1 z 1 -0.0120(4) 0.0025(3)
loop_
_atom_site_Fourier_wave_vector_seq_id
_jana_atom_site_fourier_wave_vector_q1_coeff
1 1
loop_
_atom_site_occ_special_func_atom_site_label
_atom_site_occ_special_func_crenel_c
_atom_site_occ_special_func_crenel_w
Nb1 0.5 0.6667
Zn1 0 0.3333
loop_
_atom_site_U_Fourier_atom_site_label
_atom_site_U_Fourier_tens_elem
_atom_site_U_Fourier_wave_vector_seq_id
_atom_site_U_Fourier_param_cos
_atom_site_U_Fourier_param_sin
Nb1 U11 1 0.00124(15) 0
Nb1 U22 1 0.00213(17) 0
Nb1 U33 1 0.00089(16) 0
Nb1 U12 1 0 0.00012(10)
Nb1 U13 1 0.00039(12) 0
Nb1 U23 1 0 0.00008(10)
Zn1 U11 1 0.00124(15) 0
Zn1 U22 1 0.00213(17) 0
Zn1 U33 1 0.00089(16) 0
Zn1 U12 1 0 0.00012(10)
Zn1 U13 1 0.00039(12) 0
Zn1 U23 1 0 0.00008(10)
loop_
_atom_type_symbol
_atom_type_scat_dispersion_real
_atom_type_scat_dispersion_imag
_atom_type_scat_source
Nb -2.0727 0.6215 'International Tables Vol C tables 4.2.6.8 and 6.1.1.1'
O 0.0106 0.0060 'International Tables Vol C tables 4.2.6.8 and 6.1.1.1'
Zn 0.2839 1.4301 'International Tables Vol C tables 4.2.6.8 and 6.1.1.1'
loop_
_cell_wave_vector_seq_id
_cell_wave_vector_x
_cell_wave_vector_y
_cell_wave_vector_z
1 0.333333 0.000000 0.000000
loop_
_geom_bond_atom_site_label_1
_geom_bond_atom_site_label_2
_geom_bond_site_ssg_symmetry_2
_geom_bond_distance_av
_geom_bond_distance_min
_geom_bond_distance_max
Nb1 Nb1 5_5755 3.2652(3) 3.2652(3) 3.2652(3)
Nb1 Nb1 5_5765 3.2652(3) 3.2652(3) 3.2652(3)
Nb1 O1 . 2.178(2) 2.085(2) 2.270(2)
Nb1 O1 3_5555 2.178(2) 2.085(2) 2.270(2)
Nb1 O1 5_5765 1.992(2) 1.920(2) 2.065(2)
Nb1 O1 6_4455 1.879(2) 1.803(2) 1.954(2)
Nb1 O1 7_5745 1.992(2) 1.920(2) 2.065(2)
Nb1 O1 8_5455 1.879(2) 1.803(2) 1.954(2)
Zn1 Zn1 5_5755 3.2125(4) 3.2125(4) 3.2125(4)
Zn1 Zn1 5_5765 3.2125(4) 3.2125(4) 3.2125(4)
Zn1 O1 . 2.172(2) 2.172(2) 2.172(2)
Zn1 O1 3_5555 2.172(2) 2.172(2) 2.172(2)
Zn1 O1 5_5765 2.082(2) 2.082(2) 2.082(2)
Zn1 O1 6_4455 2.061(2) 2.061(2) 2.061(2)
Zn1 O1 7_5745 2.082(2) 2.082(2) 2.082(2)
Zn1 O1 8_5455 2.061(2) 2.061(2) 2.061(2)
loop_
_refln_index_h
_refln_index_k
_refln_index_l
_refln_index_m_1
_refln_F_squared_calc
_refln_F_squared_meas
_refln_F_squared_sigma
_refln_observed_status
1 0 0 -1 38.01 29.52 0.64 o
1 0 0 1 517.33 473.79 3.16 o
2 0 0 0 4430.44 4310.93 75.80 o
3 0 0 -1 287.36 312.18 3.33 o
3 0 0 1 390.90 395.24 4.08 o
4 0 0 0 7345.00 7302.10 128.32 o
5 0 0 -1 188.39 189.80 4.27 o
5 0 0 1 599.83 579.83 8.71 o
0 1 0 1 19.70 14.26 0.34 o
1 1 0 0 3395.02 3462.71 42.90 o
2 1 0 -1 19.95 21.71 0.66 o
2 1 0 1 81.64 76.77 1.18 o
3 1 0 0 770.65 812.52 10.78 o
4 1 0 -1 63.80 58.72 1.34 o
4 1 0 1 45.12 44.89 1.59 o
5 1 0 0 874.22 846.42 16.50 o
6 1 0 -1 42.37 36.86 2.86 o
0 2 0 0 4624.24 4528.80 79.48 o
1 2 0 -1 32.97 28.00 0.55 o
1 2 0 1 111.18 91.97 0.97 o
2 2 0 0 4188.80 4134.60 51.44 o
3 2 0 -1 30.07 28.87 0.96 o
3 2 0 1 307.63 292.88 3.16 o
4 2 0 0 1512.10 1544.15 26.54 o
5 2 0 -1 98.41 102.79 3.07 o
5 2 0 1 207.71 208.95 4.31 o
6 2 0 0 695.59 695.55 20.37 o
0 3 0 1 36.68 30.05 0.70 o
1 3 0 0 9006.11 8912.88 110.23 o
2 3 0 -1 10.35 8.98 0.70 o
2 3 0 1 343.84 336.64 3.58 o
3 3 0 0 4306.96 4259.41 65.32 o
4 3 0 -1 226.33 224.40 5.00 o
4 3 0 1 359.35 378.06 5.90 o
5 3 0 0 2610.37 2694.25 49.54 o
6 3 0 -1 190.73 202.22 4.71 o
0 4 0 0 1708.12 1642.63 29.54 o
1 4 0 -1 7.02 5.09 0.53 o
1 4 0 1 2.30 2.89 0.60 o
2 4 0 0 29.16 29.89 1.46 o
3 4 0 -1 53.14 59.48 2.14 o
3 4 0 1 2.47 1.80 1.18 <
4 4 0 0 489.16 519.50 11.56 o
5 4 0 -1 3.31 4.39 1.53 <
5 4 0 1 3.03 4.57 1.66 <
0 5 0 1 82.05 78.02 1.68 o
1 5 0 0 2930.12 2892.71 44.39 o
2 5 0 -1 4.15 4.20 0.90 o
2 5 0 1 235.85 246.15 4.44 o
3 5 0 0 2621.09 2727.98 50.00 o
4 5 0 -1 35.14 35.44 2.43 o
4 5 0 1 394.74 394.78 6.99 o
0 6 0 0 2343.58 2341.81 52.34 o
1 6 0 -1 8.22 8.17 1.19 o
1 6 0 1 34.03 37.42 1.96 o
2 6 0 0 2901.18 2902.41 52.82 o
3 6 0 -1 32.99 31.28 2.33 o
3 6 0 1 246.36 250.65 5.53 o
0 7 0 1 50.70 47.40 3.27 o
1 7 0 0 8.18 10.69 1.49 o
2 7 0 -1 3.73 5.14 1.56 o
2 7 0 1 21.81 24.67 2.50 o
0 1 1 1 169.31 140.22 0.91 o
1 1 1 -1 2.27 2.00 0.26 o
1 1 1 0 10812.60 11140.20 114.57 o
1 1 1 1 0.28 0.13 0.20 <
2 1 1 -1 35.82 37.68 0.58 o
2 1 1 0 29.82 33.40 0.66 o
2 1 1 1 322.49 312.85 1.53 o
3 1 1 -1 0.22 -0.11 0.26 <
3 1 1 0 5989.74 5879.57 55.02 o
3 1 1 1 4.26 4.51 0.53 o
4 1 1 -1 146.86 142.24 1.75 o
4 1 1 0 35.66 34.73 1.11 o
4 1 1 1 484.76 479.20 3.53 o
5 1 1 -1 4.10 3.95 0.74 o
5 1 1 0 1992.60 1981.52 24.93 o
5 1 1 1 1.01 1.00 0.73 <
6 1 1 -1 283.36 269.40 3.82 o
6 1 1 0 18.17 19.98 2.13 o
0 2 1 0 4210.69 4160.19 51.59 o
0 2 1 1 0.30 0.26 0.17 <
1 2 1 -1 1.66 2.16 0.23 o
1 2 1 0 1173.97 1252.57 12.40 o
1 2 1 1 98.26 83.96 0.98 o
2 2 1 -1 3.21 4.02 0.35 o
2 2 1 0 7472.64 7452.81 68.50 o
2 2 1 1 9.76 9.98 0.47 o
3 2 1 -1 64.36 60.56 1.18 o
3 2 1 0 362.11 366.90 4.57 o
3 2 1 1 244.22 250.30 2.43 o
4 2 1 -1 16.69 18.95 1.03 o
4 2 1 0 1706.49 1715.41 20.19 o
4 2 1 1 1.81 0.56 0.60 <
5 2 1 -1 205.05 202.76 2.73 o
5 2 1 0 76.02 74.47 2.12 o
5 2 1 1 236.69 225.15 3.68 o
6 2 1 -1 5.00 6.00 1.13 o
6 2 1 0 1188.49 1127.40 19.82 o
0 3 1 1 32.48 29.62 0.53 o
1 3 1 -1 3.95 5.16 0.31 o
1 3 1 0 583.85 578.43 5.77 o
1 3 1 1 0.03 0.07 0.25 <
2 3 1 -1 6.45 6.19 0.49 o
2 3 1 0 26.78 27.46 0.87 o
2 3 1 1 82.40 82.45 1.38 o
3 3 1 -1 0.32 0.97 0.54 <
3 3 1 0 200.49 217.33 3.58 o
3 3 1 1 0.84 0.79 0.63 <
4 3 1 -1 2.61 3.39 0.75 o
4 3 1 0 34.35 36.80 1.49 o
4 3 1 1 48.55 50.62 1.72 o
5 3 1 -1 0.02 0.15 0.77 <
5 3 1 0 214.22 223.05 4.37 o
5 3 1 1 3.91 3.18 1.04 o
6 3 1 -1 3.62 4.49 1.13 o
0 4 1 0 7003.82 6772.06 93.92 o
0 4 1 1 10.16 9.67 0.51 o
1 4 1 -1 7.84 7.75 0.47 o
1 4 1 0 27.96 27.52 0.81 o
1 4 1 1 231.65 221.89 1.91 o
2 4 1 -1 0.10 0.55 0.42 <
2 4 1 0 4793.42 4847.03 54.71 o
2 4 1 1 2.89 2.78 0.65 o
3 4 1 -1 45.71 44.20 1.42 o
3 4 1 0 9.32 11.66 1.02 o
3 4 1 1 351.15 367.18 3.73 o
4 4 1 -1 0.18 0.62 0.75 <
4 4 1 0 2899.19 2886.11 37.43 o
4 4 1 1 6.17 6.34 1.10 o
5 4 1 -1 150.13 151.94 3.08 o
5 4 1 0 4.42 3.50 1.07 o
0 5 1 1 4.62 4.59 0.55 o
1 5 1 -1 4.82 4.03 0.55 o
1 5 1 0 1609.84 1622.46 18.99 o
1 5 1 1 0.63 0.50 0.52 <
2 5 1 -1 30.66 31.54 1.16 o
2 5 1 0 2.02 2.77 0.66 o
2 5 1 1 24.72 27.93 1.25 o
3 5 1 -1 1.83 2.28 0.75 o
3 5 1 0 1185.19 1252.40 16.54 o
3 5 1 1 1.34 0.83 0.85 <
4 5 1 -1 41.40 42.16 1.86 o
4 5 1 0 5.65 8.14 1.23 o
4 5 1 1 75.86 74.05 2.45 o
0 6 1 0 1269.69 1243.82 23.31 o
0 6 1 1 0.01 0.88 0.57 <
1 6 1 -1 41.55 42.78 1.34 o
1 6 1 0 128.55 132.83 2.71 o
1 6 1 1 101.03 99.12 2.00 o
2 6 1 -1 3.12 2.14 0.71 o
2 6 1 0 426.65 435.93 6.84 o
2 6 1 1 0.01 0.35 0.72 <
3 6 1 -1 0.14 -0.03 0.82 <
3 6 1 0 74.94 80.35 2.51 o
3 6 1 1 150.30 170.62 3.30 o
4 6 1 -1 1.98 2.35 1.11 <
0 7 1 1 59.15 59.38 2.04 o
1 7 1 -1 1.70 1.63 0.88 <
1 7 1 0 2640.50 2595.07 42.46 o
1 7 1 1 0.31 0.25 0.95 <
2 7 1 -1 1.23 1.23 0.92 <
2 7 1 0 6.70 7.58 1.25 o
0 0 2 0 7898.09 7999.59 161.28 o
0 0 2 1 8.24 7.07 0.38 o
1 0 2 -1 3.89 2.74 0.35 o
1 0 2 0 1185.21 1289.52 17.79 o
1 0 2 1 193.89 164.51 1.42 o
2 0 2 -1 25.86 27.09 0.70 o
2 0 2 0 11911.00 11794.60 146.24 o
2 0 2 1 0.09 0.07 0.32 <
3 0 2 -1 71.84 69.09 1.50 o
3 0 2 0 324.45 328.37 5.51 o
3 0 2 1 542.23 545.24 5.54 o
4 0 2 -1 0.58 0.75 0.86 <
4 0 2 0 3082.23 2994.33 50.45 o
4 0 2 1 6.58 5.45 1.07 o
5 0 2 -1 341.81 334.49 5.18 o
5 0 2 0 98.42 97.85 3.50 o
5 0 2 1 421.26 420.09 5.98 o
6 0 2 -1 13.66 15.05 2.01 o
6 0 2 0 1894.46 1791.29 38.83 o
0 1 2 1 0.54 0.24 0.23 <
1 1 2 -1 0.21 0.42 0.23 <
1 1 2 0 1756.37 1767.09 18.20 o
1 1 2 1 5.18 4.87 0.38 o
2 1 2 -1 1.94 1.65 0.31 o
2 1 2 0 28.35 29.07 0.65 o
2 1 2 1 54.50 53.29 0.98 o
3 1 2 -1 3.37 3.63 0.50 o
3 1 2 0 1326.83 1372.21 14.85 o
3 1 2 1 1.15 0.81 0.58 <
4 1 2 -1 53.79 53.96 1.40 o
4 1 2 0 26.82 26.18 1.21 o
4 1 2 1 80.34 78.86 1.86 o
5 1 2 -1 0.38 0.51 0.68 <
5 1 2 0 320.43 336.38 5.64 o
5 1 2 1 4.98 3.40 0.88 o
6 1 2 -1 59.93 61.20 2.08 o
0 2 2 0 4317.76 4329.87 58.83 o
0 2 2 1 0.04 0.05 0.24 <
1 2 2 -1 7.48 5.96 0.38 o
1 2 2 0 9.80 10.09 0.42 o
1 2 2 1 159.23 157.57 1.55 o
2 2 2 -1 4.08 3.87 0.48 o
2 2 2 0 2700.76 2717.12 29.82 o
2 2 2 1 6.92 6.30 0.60 o
3 2 2 -1 22.84 22.13 0.90 o
3 2 2 0 5.35 4.88 0.63 o
3 2 2 1 190.39 196.83 2.19 o
4 2 2 -1 1.99 2.11 0.61 o
4 2 2 0 1507.17 1566.95 18.47 o
4 2 2 1 0.04 0.47 0.66 <
5 2 2 -1 70.44 71.28 1.87 o
5 2 2 0 0.18 -0.95 0.75 <
5 2 2 1 240.93 237.43 3.69 o
6 2 2 -1 0.29 0.07 0.96 <
0 3 2 1 51.49 48.26 0.72 o
1 3 2 -1 0.04 0.11 0.33 <
1 3 2 0 6627.98 6699.08 68.96 o
1 3 2 1 12.70 12.92 0.70 o
2 3 2 -1 20.55 19.19 0.85 o
2 3 2 0 9.97 9.58 0.75 o
2 3 2 1 249.43 248.31 2.41 o
3 3 2 -1 14.74 14.57 0.86 o
3 3 2 0 4441.65 4476.37 48.92 o
3 3 2 1 0.01 0.35 0.53 <
4 3 2 -1 130.35 135.34 2.10 o
4 3 2 0 7.56 6.90 0.89 o
4 3 2 1 392.42 388.46 4.04 o
5 3 2 -1 0.12 0.91 0.80 <
5 3 2 0 1773.79 1722.56 22.34 o
5 3 2 1 3.61 3.53 1.04 o
0 4 2 0 16.03 17.75 1.07 o
0 4 2 1 0.00 -0.08 0.39 <
1 4 2 -1 16.43 15.58 0.75 o
1 4 2 0 287.92 282.45 3.82 o
1 4 2 1 6.23 5.83 0.61 o
2 4 2 -1 3.32 2.97 0.56 o
2 4 2 0 482.83 499.88 6.59 o
2 4 2 1 0.08 -0.57 0.47 <
3 4 2 -1 7.30 8.62 0.83 o
3 4 2 0 137.48 138.99 2.83 o
3 4 2 1 0.92 0.41 0.72 <
4 4 2 -1 2.72 3.20 0.82 o
4 4 2 0 19.45 24.61 1.39 o
4 4 2 1 0.58 0.36 0.78 <
5 4 2 -1 35.46 35.80 1.93 o
5 4 2 0 52.81 56.10 2.41 o
0 5 2 1 111.48 109.69 1.84 o
1 5 2 -1 2.12 2.47 0.60 o
1 5 2 0 2868.52 2839.55 32.62 o
1 5 2 1 0.59 1.02 0.59 <
2 5 2 -1 0.55 0.89 0.57 <
2 5 2 0 7.06 8.65 0.88 o
2 5 2 1 223.90 228.32 2.99 o
3 5 2 -1 1.38 1.94 0.77 <
3 5 2 0 1660.94 1751.44 21.78 o
3 5 2 1 5.11 5.47 0.96 o
4 5 2 -1 21.89 22.02 1.50 o
4 5 2 0 22.73 22.48 1.65 o
4 5 2 1 284.26 294.54 4.30 o
0 6 2 0 2870.50 2876.79 52.08 o
0 6 2 1 0.08 -0.02 0.65 <
1 6 2 -1 1.40 1.08 0.67 <
1 6 2 0 14.29 17.35 1.16 o
1 6 2 1 93.53 92.22 2.22 o
2 6 2 -1 3.65 3.86 0.87 o
2 6 2 0 1917.23 1963.23 25.05 o
2 6 2 1 9.23 8.06 1.04 o
3 6 2 -1 27.47 27.01 1.50 o
3 6 2 0 11.50 14.74 1.43 o
3 6 2 1 121.23 132.14 3.00 o
0 7 2 1 18.68 17.27 1.44 o
1 7 2 -1 3.31 4.60 1.12 o
1 7 2 0 11.14 12.67 1.48 o
1 7 2 1 1.15 1.25 0.89 <
0 1 3 1 53.91 52.53 0.84 o
1 1 3 -1 28.55 28.73 0.63 o
1 1 3 0 6739.97 6814.11 69.22 o
1 1 3 1 1.11 1.16 0.35 o
2 1 3 -1 8.08 5.71 0.50 o
2 1 3 0 1.05 1.96 0.45 o
2 1 3 1 299.01 297.77 2.59 o
3 1 3 -1 1.39 1.98 0.56 o
3 1 3 0 3248.71 3357.00 38.33 o
3 1 3 1 7.60 7.53 0.86 o
4 1 3 -1 143.81 144.82 2.47 o
4 1 3 0 0.24 1.00 0.75 <
4 1 3 1 317.29 329.36 3.82 o
5 1 3 -1 9.53 11.02 1.16 o
5 1 3 0 2207.43 2175.73 28.68 o
5 1 3 1 0.89 1.35 0.94 <
0 2 3 0 8514.67 8654.10 116.47 o
0 2 3 1 9.09 8.94 0.48 o
1 2 3 -1 2.49 3.65 0.45 o
1 2 3 0 1.55 2.16 0.46 o
1 2 3 1 92.36 93.17 1.39 o
2 2 3 -1 7.93 8.17 0.67 o
2 2 3 0 1418.38 1460.57 17.23 o
2 2 3 1 0.63 1.23 0.55 <
3 2 3 -1 102.40 98.81 1.65 o
3 2 3 0 0.05 0.03 0.52 <
3 2 3 1 143.46 145.98 2.24 o
4 2 3 -1 1.10 0.44 0.65 <
4 2 3 0 2967.81 3007.37 37.57 o
4 2 3 1 5.11 5.46 0.93 o
5 2 3 -1 70.92 70.49 2.05 o
5 2 3 0 0.70 0.47 0.88 <
5 2 3 1 249.17 242.70 3.76 o
0 3 3 1 21.93 21.01 0.89 o
1 3 3 -1 2.15 2.42 0.50 o
1 3 3 0 259.29 260.51 3.59 o
1 3 3 1 6.28 5.82 0.57 o
2 3 3 -1 6.62 6.25 0.65 o
2 3 3 0 0.14 0.38 0.50 <
2 3 3 1 40.76 40.72 1.22 o
3 3 3 -1 6.62 8.19 0.81 o
3 3 3 0 401.77 409.70 5.56 o
3 3 3 1 0.14 0.11 0.62 <
4 3 3 -1 0.41 1.45 0.74 <
4 3 3 0 0.85 0.32 0.68 <
4 3 3 1 81.21 78.94 2.07 o
5 3 3 -1 0.30 0.91 0.84 <
5 3 3 0 23.67 27.21 1.85 o
0 4 3 0 4049.28 4036.08 71.85 o
0 4 3 1 5.08 5.42 0.67 o
1 4 3 -1 24.53 25.13 0.99 o
1 4 3 0 0.17 0.54 0.53 <
1 4 3 1 115.89 111.84 1.87 o
2 4 3 -1 7.05 6.95 0.73 o
2 4 3 0 4247.93 4216.95 46.09 o
2 4 3 1 6.74 7.15 0.77 o
3 4 3 -1 29.42 29.44 1.25 o
3 4 3 0 1.43 0.94 0.69 <
3 4 3 1 413.18 408.32 3.77 o
4 4 3 -1 6.40 7.04 1.04 o
4 4 3 0 1979.69 1980.60 25.27 o
4 4 3 1 1.00 0.55 0.89 <
0 5 3 1 0.58 0.45 0.58 <
1 5 3 -1 3.41 3.44 0.70 o
1 5 3 0 1302.18 1264.27 16.35 o
1 5 3 1 0.61 0.86 0.56 <
2 5 3 -1 2.87 3.19 0.71 o
2 5 3 0 0.08 -0.06 0.62 <
2 5 3 1 43.64 39.53 1.50 o
3 5 3 -1 0.77 1.24 0.81 <
3 5 3 0 761.62 796.59 11.23 o
3 5 3 1 1.52 1.07 0.89 <
4 5 3 -1 72.71 74.13 2.18 o
0 6 3 0 208.23 210.94 5.65 o
0 6 3 1 0.90 1.62 0.73 <
1 6 3 -1 20.31 20.06 1.30 o
1 6 3 0 0.01 0.53 0.74 <
1 6 3 1 91.44 90.30 2.28 o
2 6 3 -1 0.76 0.28 0.71 <
2 6 3 0 1152.20 1161.06 17.12 o
2 6 3 1 1.72 2.65 1.02 <
3 6 3 -1 6.99 9.13 1.28 o
0 0 4 0 4646.24 4524.10 93.62 o
0 0 4 1 12.07 12.55 0.88 o
1 0 4 -1 3.51 3.87 0.68 o
1 0 4 0 331.97 331.80 6.11 o
1 0 4 1 166.05 168.18 2.62 o
2 0 4 -1 4.28 5.29 0.85 o
2 0 4 0 6038.39 5982.21 100.33 o
2 0 4 1 24.47 22.44 1.50 o
3 0 4 -1 50.30 53.11 2.21 o
3 0 4 0 192.27 197.18 5.28 o
3 0 4 1 323.86 346.38 5.50 o
4 0 4 -1 38.67 41.51 2.34 o
4 0 4 0 2163.08 2202.24 41.04 o
4 0 4 1 0.09 0.78 1.22 <
5 0 4 -1 172.39 179.88 4.69 o
5 0 4 0 36.35 36.58 2.76 o
0 1 4 1 19.10 18.55 0.80 o
1 1 4 -1 0.05 0.00 0.35 <
1 1 4 0 964.96 991.19 10.58 o
1 1 4 1 4.84 4.64 0.59 o
2 1 4 -1 17.45 16.63 0.85 o
2 1 4 0 9.49 10.99 0.85 o
2 1 4 1 17.24 19.58 1.07 o
3 1 4 -1 5.60 5.89 0.81 o
3 1 4 0 749.90 780.83 10.75 o
3 1 4 1 2.35 2.84 0.75 o
4 1 4 -1 10.78 10.37 1.06 o
4 1 4 0 26.73 27.02 1.65 o
4 1 4 1 77.44 78.33 2.29 o
5 1 4 -1 1.94 3.14 0.98 o
0 2 4 0 2217.36 2211.84 37.61 o
0 2 4 1 10.93 11.55 0.72 o
1 2 4 -1 8.38 8.72 0.65 o
1 2 4 0 6.34 8.46 0.68 o
1 2 4 1 91.75 94.98 1.57 o
2 2 4 -1 4.45 4.59 0.62 o
2 2 4 0 1682.15 1718.29 20.08 o
2 2 4 1 0.55 0.44 0.56 <
3 2 4 -1 9.67 9.17 0.88 o
3 2 4 0 0.79 1.94 0.75 <
3 2 4 1 159.91 163.99 2.74 o
4 2 4 -1 3.35 3.56 0.84 o
4 2 4 0 1017.06 1052.77 14.40 o
4 2 4 1 5.28 6.09 1.05 o
5 2 4 -1 50.68 49.82 1.99 o
0 3 4 1 68.98 66.37 1.54 o
1 3 4 -1 13.83 14.35 0.95 o
1 3 4 0 4011.94 4004.70 47.56 o
1 3 4 1 7.40 5.61 0.71 o
2 3 4 -1 16.85 16.09 1.04 o
2 3 4 0 1.63 2.19 0.65 o
2 3 4 1 167.93 169.18 2.42 o
3 3 4 -1 6.44 7.96 0.92 o
3 3 4 0 2917.74 2869.37 33.16 o
3 3 4 1 7.67 6.47 0.95 o
4 3 4 -1 59.66 62.75 1.90 o
4 3 4 0 16.05 17.58 1.44 o
4 3 4 1 331.08 327.29 4.22 o
0 4 4 0 25.94 32.79 1.90 o
0 4 4 1 0.36 -0.27 0.56 <
1 4 4 -1 8.68 8.72 0.86 o
1 4 4 0 148.79 141.66 3.02 o
1 4 4 1 0.61 0.80 0.65 <
2 4 4 -1 0.87 1.48 0.67 <
2 4 4 0 271.28 273.62 4.46 o
2 4 4 1 1.71 0.90 0.69 <
3 4 4 -1 8.71 7.34 0.95 o
3 4 4 0 91.66 98.99 2.43 o
3 4 4 1 0.21 0.69 0.83 <
4 4 4 -1 7.22 8.46 1.14 o
0 5 4 1 49.51 46.92 1.62 o
1 5 4 -1 14.20 16.94 1.22 o
1 5 4 0 1941.34 1887.09 24.80 o
1 5 4 1 2.27 2.88 0.82 o
2 5 4 -1 10.18 10.25 1.05 o
2 5 4 0 9.89 10.01 1.10 o
2 5 4 1 224.06 215.80 3.09 o
3 5 4 -1 1.73 1.99 0.84 <
0 6 4 0 1935.76 1867.34 35.03 o
0 6 4 1 13.68 12.15 1.18 o
1 6 4 -1 3.11 2.02 0.86 <
1 6 4 0 16.08 18.95 1.66 o
0 1 5 1 32.02 32.48 1.15 o
1 1 5 -1 5.89 6.83 0.85 o
1 1 5 0 3146.81 3125.95 37.47 o
1 1 5 1 22.42 22.51 1.10 o
2 1 5 -1 1.13 0.93 0.63 <
2 1 5 0 7.30 7.83 0.91 o
2 1 5 1 208.61 216.12 2.95 o
3 1 5 -1 26.12 27.01 1.35 o
3 1 5 0 2450.04 2475.40 31.35 o
3 1 5 1 1.75 2.93 0.92 o
4 1 5 -1 72.98 75.15 2.27 o
4 1 5 0 2.60 3.44 1.06 o
0 2 5 0 1566.02 1579.72 31.29 o
0 2 5 1 6.59 5.98 0.76 o
1 2 5 -1 1.65 1.65 0.64 <
1 2 5 0 150.19 145.10 2.84 o
1 2 5 1 44.49 44.57 1.45 o
2 2 5 -1 16.74 18.22 1.18 o
2 2 5 0 2572.48 2540.73 32.66 o
2 2 5 1 5.75 4.94 0.82 o
3 2 5 -1 10.50 10.33 1.07 o
3 2 5 0 70.93 69.83 2.18 o
3 2 5 1 178.96 186.53 3.16 o
4 2 5 -1 2.10 1.71 0.97 <
0 3 5 1 37.99 38.35 1.36 o
1 3 5 -1 4.05 3.45 0.77 o
1 3 5 0 227.62 228.91 4.27 o
1 3 5 1 0.04 0.99 0.68 <
2 3 5 -1 0.19 -0.20 0.66 <
2 3 5 0 3.51 4.18 0.85 o
2 3 5 1 22.56 22.95 1.52 o
3 3 5 -1 0.01 0.50 0.85 <
3 3 5 0 87.66 95.45 2.66 o
3 3 5 1 4.37 5.28 1.07 o
0 4 5 0 3018.26 2937.51 53.41 o
0 4 5 1 6.90 7.30 0.95 o
1 4 5 -1 12.88 13.05 1.13 o
1 4 5 0 2.95 3.04 0.75 o
1 4 5 1 155.78 155.64 2.81 o
2 4 5 -1 15.12 13.62 1.28 o
2 4 5 0 2168.58 2170.25 28.50 o
2 4 5 1 14.72 14.06 1.28 o
0 5 5 1 3.68 4.00 0.94 o
1 5 5 -1 0.21 0.03 0.80 <
0 0 6 0 4583.68 4575.35 117.21 o
0 0 6 1 23.40 23.68 1.87 o
1 0 6 -1 16.40 16.55 2.38 o
1 0 6 0 2.22 3.25 1.66 <
1 0 6 1 120.93 119.03 4.83 o
2 0 6 -1 23.13 24.14 2.44 o
2 0 6 0 1553.52 1565.61 29.74 o
2 0 6 1 4.88 4.74 1.37 o
3 0 6 -1 38.11 37.86 2.53 o
0 1 6 1 5.11 5.36 1.05 o
1 1 6 -1 17.11 17.78 1.55 o
1 1 6 0 572.95 573.99 8.35 o
1 1 6 1 0.07 0.34 0.75 <
2 1 6 -1 0.77 1.68 0.86 <
2 1 6 0 0.86 1.19 0.89 <
2 1 6 1 31.76 32.20 1.75 o
3 1 6 -1 0.15 0.00 0.85 <
0 2 6 0 1030.75 1060.40 29.85 o
0 2 6 1 5.81 3.21 1.03 o
1 2 6 -1 12.79 13.29 1.35 o
1 2 6 0 0.04 -0.77 0.76 <
1 2 6 1 51.48 47.88 1.91 o
2 2 6 -1 7.52 7.15 1.11 o
2 2 6 0 1034.83 1033.14 16.88 o
0 3 6 1 32.88 33.66 1.65 o
1 3 6 -1 26.42 22.68 1.44 o
1 3 6 0 2320.94 2300.01 34.96 o
1 3 6 1 5.76 4.10 1.60 <
loop_
_publcif_info_datablock.id
_publcif_info_datablock.publ_exptl
_publcif_info_datablock.publ_geom
_publcif_info_datablock.structure
{4fb73e4d-aa57-4db2-b7a3-ac28a5607fe6} ? ? ?
{688a7209-5a1a-41db-961e-8ce0f275f2f3} y y y
loop_
_publcif_info_exptl_table_extra_item
sin_theta_over_lambda_max
loop_
_publcif_info_tables.block_id
_publcif_info_tables.reference_item
{4fb73e4d-aa57-4db2-b7a3-ac28a5607fe6} '_publcif_info_datablock.publ_exptl'
