#------------------------------------------------------------------------------
#$Date: 2018-01-23 14:43:58 +0200 (Tue, 23 Jan 2018) $
#$Revision: 205493 $
#$URL: file:///home/coder/svn-repositories/cod/cif/7/22/64/7226445.cif $
#------------------------------------------------------------------------------
#
# This file is available in the Crystallography Open Database (COD),
# http://www.crystallography.net/
#
# All data on this site have been placed in the public domain by the
# contributors.
#
data_7226445
loop_
_publ_author_name
'Haipeng Ji'
'Le Wang'
'Maxim Molokeev'
'Naoto Hirosaki'
'Rong-Jun Xie'
'Zhaohui Huang'
'Zhiguo Xia'
'Otmar Melvin ten Kate'
'Lihong Liu'
'Victor V. Atuchin'
_publ_section_title
;
 Structure evolution and photoluminescence of Lu3(Al,Mg)2(Al,Si)3O12:Ce3+
 phosphors: New yellow-color converter for blue LED-driven solid state
 lighting
;
_journal_issue                   0
_journal_name_full               'Journal of Materials Chemistry C'
_journal_page_first              6855
_journal_page_last               6863
_journal_paper_doi               10.1039/c6tc00966b
_journal_volume                  4
_journal_year                    2016
_chemical_formula_moiety         'Al40 Ce0.24 Lu23.76 O96'
_chemical_formula_sum            'Al40 Ce0.24 Lu23.76 O96'
_chemical_formula_weight         6806.12
_space_group_IT_number           230
_symmetry_cell_setting           cubic
_symmetry_space_group_name_Hall  '-I 4bd 2c 3'
_symmetry_space_group_name_H-M   'I a -3 d'
_audit_update_record
;
2015-12-03 # Formatted by publCIF
;
_cell_angle_alpha                90
_cell_angle_beta                 90
_cell_angle_gamma                90
_cell_formula_units_Z            1
_cell_length_a                   11.913627(45)
_cell_length_b                   11.913627(45)
_cell_length_c                   11.913627(45)
_cell_measurement_reflns_used    109
_cell_measurement_temperature    300
_cell_measurement_theta_max      60
_cell_measurement_theta_min      7.5
_cell_volume                     1690.955(11)
_diffrn_ambient_temperature      300
_diffrn_measurement_device_type
;
D8 ADVANCE Bruker
;
_diffrn_radiation_monochromator  none
_diffrn_radiation_probe          x-ray
_diffrn_radiation_type
;
 Cu K\a~1~~2~
;
_exptl_absorpt_coefficient_mu    71.424
_exptl_crystal_density_diffrn    6.683636
_pd_char_colour
;
colourless
;
_pd_meas_2theta_range_inc        0.02
_pd_meas_2theta_range_max        120
_pd_meas_2theta_range_min        15
_pd_meas_scan_method             step
_pd_proc_ls_pref_orient_corr
;
no preferred orientation
;
_pd_proc_ls_profile_function     PearsonVII
_pd_proc_ls_prof_R_factor        7.831
_pd_proc_ls_prof_wR_expected     4.676
_pd_proc_ls_prof_wR_factor       10.831
_pd_proc_number_of_points        5250
_pd_spec_mount_mode              reflection
_refine_ls_goodness_of_fit_all   2.316
_refine_ls_R_I_factor            3.19
_refine_ls_shift/su_max          0.01000
_cod_data_source_file            Lu2p97Ce0p03Al5O12.cif
_cod_data_source_block           a
_cod_original_cell_volume        1690.955(19)
_cod_original_sg_symbol_Hall
;
-I 4bd 2c 3
;
_cod_original_sg_symbol_H-M      Ia-3d
_cod_original_formula_sum
;
Al40 Ce0.24 Lu23.76 O96
;
_cod_database_code               7226445
_cod_database_fobs_code          7226445
loop_
_symmetry_equiv_pos_as_xyz
'x, y, z'
'-x, -y, -z'
'-x, -y+1/2, z'
'-x, y, z+1/2'
'-x, y+1/2, -z+1/2'
'-x+1/4, -z+1/4, -y+1/4'
'-x+1/4, -z-1/4, y-1/4'
'-x+1/4, z+1/4, -y-1/4'
'-x+1/4, z-1/4, y+1/4'
'-x+1/2, -y, z+1/2'
'-x+1/2, -y+1/2, -z+1/2'
'-x+1/2, y, -z'
'-x+1/2, y+1/2, z'
'-x-1/4, -z+1/4, y+1/4'
'-x-1/4, -z-1/4, -y-1/4'
'-x-1/4, z+1/4, y-1/4'
'-x-1/4, z-1/4, -y+1/4'
'-y, -z, -x'
'-y, -z+1/2, x'
'-y, z, x+1/2'
'-y, z+1/2, -x+1/2'
'-y+1/4, -x+1/4, -z+1/4'
'-y+1/4, -x-1/4, z-1/4'
'-y+1/4, x+1/4, -z-1/4'
'-y+1/4, x-1/4, z+1/4'
'-y+1/2, -z, x+1/2'
'-y+1/2, -z+1/2, -x+1/2'
'-y+1/2, z, -x'
'-y+1/2, z+1/2, x'
'-y-1/4, -x+1/4, z+1/4'
'-y-1/4, -x-1/4, -z-1/4'
'-y-1/4, x+1/4, z-1/4'
'-y-1/4, x-1/4, -z+1/4'
'-z, -x, -y'
'-z, -x+1/2, y'
'-z, x, y+1/2'
'-z, x+1/2, -y+1/2'
'-z+1/4, -y+1/4, -x+1/4'
'-z+1/4, -y-1/4, x-1/4'
'-z+1/4, y+1/4, -x-1/4'
'-z+1/4, y-1/4, x+1/4'
'-z+1/2, -x, y+1/2'
'-z+1/2, -x+1/2, -y+1/2'
'-z+1/2, x, -y'
'-z+1/2, x+1/2, y'
'-z-1/4, -y+1/4, x+1/4'
'-z-1/4, -y-1/4, -x-1/4'
'-z-1/4, y+1/4, x-1/4'
'-z-1/4, y-1/4, -x+1/4'
'z, -x, -y+1/2'
'z, -x+1/2, y+1/2'
'z, x, y'
'z, x+1/2, -y'
'z+1/4, -y+1/4, x-1/4'
'z+1/4, -y-1/4, -x+1/4'
'z+1/4, y+1/4, x+1/4'
'z+1/4, y-1/4, -x-1/4'
'z+1/2, -x, y'
'z+1/2, -x+1/2, -y'
'z+1/2, x, -y+1/2'
'z+1/2, x+1/2, y+1/2'
'z-1/4, -y+1/4, -x-1/4'
'z-1/4, -y-1/4, x+1/4'
'z-1/4, y+1/4, -x+1/4'
'z-1/4, y-1/4, x-1/4'
'y, -z, -x+1/2'
'y, -z+1/2, x+1/2'
'y, z, x'
'y, z+1/2, -x'
'y+1/4, -x+1/4, z-1/4'
'y+1/4, -x-1/4, -z+1/4'
'y+1/4, x+1/4, z+1/4'
'y+1/4, x-1/4, -z-1/4'
'y+1/2, -z, x'
'y+1/2, -z+1/2, -x'
'y+1/2, z, -x+1/2'
'y+1/2, z+1/2, x+1/2'
'y-1/4, -x+1/4, -z-1/4'
'y-1/4, -x-1/4, z+1/4'
'y-1/4, x+1/4, -z+1/4'
'y-1/4, x-1/4, z-1/4'
'x, -y, -z+1/2'
'x, -y+1/2, z+1/2'
'x, y+1/2, -z'
'x+1/4, -z+1/4, y-1/4'
'x+1/4, -z-1/4, -y+1/4'
'x+1/4, z+1/4, y+1/4'
'x+1/4, z-1/4, -y-1/4'
'x+1/2, -y, z'
'x+1/2, -y+1/2, -z'
'x+1/2, y, -z+1/2'
'x+1/2, y+1/2, z+1/2'
'x-1/4, -z+1/4, -y-1/4'
'x-1/4, -z-1/4, y+1/4'
'x-1/4, z+1/4, -y+1/4'
'x-1/4, z-1/4, y-1/4'
loop_
_atom_site_label
_atom_site_type_symbol
_atom_site_fract_x
_atom_site_fract_y
_atom_site_fract_z
_atom_site_occupancy
_atom_site_B_iso_or_equiv
Lu Lu 0 0.25 0.125 0.99 0.623(36)
Ce Ce 0 0.25 0.125 0.01 0.623(36)
Al1 Al 0 0.25 0.375 1 0.523(58)
Al2 Al 0 0 0 1 0.428(67)
O O -0.03039(30) 0.05142(29) 0.14885(27) 1 0.441(79)
loop_
_diffrn_radiation_wavelength
_diffrn_radiation_wavelength_wt
1.5406 1.0000
1.5443 0.5000
loop_
_geom_angle_atom_site_label_1
_geom_angle_atom_site_label_2
_geom_angle_atom_site_label_3
_geom_angle
_geom_angle_site_symmetry_1
_geom_angle_site_symmetry_3
O Lu O 124.83(24) 1_555 19_555
O Lu O 107.99(15) 1_555 22_555
O Lu O 73.83(15) 1_555 38_555
O Lu O 95.06(12) 1_555 64_555
O Lu O 67.62(17) 1_555 68_555
O Lu O 73.68(15) 1_555 80_555
O Lu O 111.79(17) 19_555 64_555
O Lu O 72.28(15) 19_555 68_555
O Ce O 124.83(24) 1_555 19_555
O Ce O 107.99(15) 1_555 22_555
O Ce O 73.83(15) 1_555 38_555
O Ce O 95.06(12) 1_555 64_555
O Ce O 67.62(17) 1_555 68_555
O Ce O 73.68(15) 1_555 80_555
O Ce O 111.79(17) 19_555 64_555
O Ce O 72.28(15) 19_555 68_555
O Al1 O 114.21(21) 20_555 38_555
O Al1 O 100.36(17) 20_555 67_555
O Al2 O 93.49(14) 1_555 18_555
loop_
_geom_bond_atom_site_label_1
_geom_bond_atom_site_label_2
_geom_bond_distance
_geom_bond_site_symmetry_2
Lu O 2.4102(36) .
Lu O 2.2923(35) 19_555
Ce O 2.4102(36) .
Ce O 2.2923(35) 19_555
Al1 O 1.7601(34) 20_555
Al2 O 1.9108(35) .
