#------------------------------------------------------------------------------
#$Date: 2021-09-06 13:25:51 +0300 (Mon, 06 Sep 2021) $
#$Revision: 268656 $
#$URL: file:///home/coder/svn-repositories/cod/cif/7/24/33/7243343.cif $
#------------------------------------------------------------------------------
#
# This file is available in the Crystallography Open Database (COD),
# http://www.crystallography.net/
#
# All data on this site have been placed in the public domain by the
# contributors.
#
data_7243343
loop_
_publ_author_name
'Moshkina, Evgeniya'
'Bovina, Asya'
'Molokeev, Maxim'
'Krylov, Alexander'
'Shabanov, Alexander'
'Chernyshov, Artem'
'Sofronova, Svetlana'
_publ_section_title
;
 Study of flux crystal growth peculiarities, structure and Raman spectra
 of double (Mn,Ni)3BO5 and triple (Mn,Ni,Cu)3BO5 oxyborates with ludwigite
 structure
;
_journal_issue                   33
_journal_name_full               CrystEngComm
_journal_page_first              5624
_journal_page_last               5635
_journal_paper_doi               10.1039/D1CE00750E
_journal_volume                  23
_journal_year                    2021
_chemical_formula_moiety
;
B2 Cu Mn2 Ni3 O10
;
_chemical_formula_sum            'B2 Cu Mn2 Ni3 O10'
_chemical_formula_weight         531.12
_space_group_crystal_system      orthorhombic
_space_group_IT_number           55
_space_group_name_Hall           '-P 2 2ab'
_space_group_name_H-M_alt        'P b a m'
_audit_creation_method           SHELXL-2014/7
_audit_update_record
;
2021-06-04 deposited with the CCDC.	2021-06-28 downloaded from the CCDC.
;
_cell_angle_alpha                90
_cell_angle_beta                 90
_cell_angle_gamma                90
_cell_formula_units_Z            2
_cell_length_a                   9.1735(2)
_cell_length_b                   12.2939(3)
_cell_length_c                   3.00180(10)
_cell_measurement_reflns_used    6734
_cell_measurement_temperature    296(2)
_cell_measurement_theta_max      38.873
_cell_measurement_theta_min      2.770
_cell_volume                     338.537(16)
_computing_cell_refinement       'APEX2 (Bruker, 2003-2008)'
_computing_data_collection       'APEX2 (Bruker, 2003-2008)'
_computing_data_reduction        'SAINT (Bruker, 2009)'
_computing_molecular_graphics    'DIAMOND (Brandenburg, 2005)'
_computing_publication_material  'publCIF (Westrip, 2009)'
_computing_structure_refinement  'SHELXL-2014/7 (Sheldrick, 2014)'
_computing_structure_solution    'SHELXS-2014 (Sheldrick, 2014)'
_diffrn_ambient_temperature      296(2)
_diffrn_measured_fraction_theta_full 0.937
_diffrn_measured_fraction_theta_max 0.952
_diffrn_measurement_device_type  'Bruker PHOTON2 CCD'
_diffrn_measurement_method       '\f and \w scans'
_diffrn_radiation_type           MoK\a
_diffrn_radiation_wavelength     0.71073
_diffrn_reflns_av_R_equivalents  0.0448
_diffrn_reflns_av_unetI/netI     0.0304
_diffrn_reflns_Laue_measured_fraction_full 0.937
_diffrn_reflns_Laue_measured_fraction_max 0.952
_diffrn_reflns_limit_h_max       15
_diffrn_reflns_limit_h_min       -16
_diffrn_reflns_limit_k_max       21
_diffrn_reflns_limit_k_min       -21
_diffrn_reflns_limit_l_max       5
_diffrn_reflns_limit_l_min       -5
_diffrn_reflns_number            6734
_diffrn_reflns_point_group_measured_fraction_full 0.937
_diffrn_reflns_point_group_measured_fraction_max 0.952
_diffrn_reflns_theta_full        38.000
_diffrn_reflns_theta_max         38.873
_diffrn_reflns_theta_min         2.770
_exptl_absorpt_coefficient_mu    14.928
_exptl_absorpt_correction_T_max  0.7453
_exptl_absorpt_correction_T_min  0.5782
_exptl_absorpt_correction_type   multi-scan
_exptl_absorpt_process_details
;
SADABS-2004/1. Bruker AXS Inc., Madison, Wisconsin, USA, 2004
;
_exptl_crystal_colour            black
_exptl_crystal_density_diffrn    5.210
_exptl_crystal_description       block
_exptl_crystal_F_000             341
_exptl_crystal_size_max          0.3
_exptl_crystal_size_mid          0.1
_exptl_crystal_size_min          0.1
_refine_diff_density_max         3.999
_refine_diff_density_min         -2.453
_refine_diff_density_rms         0.372
_refine_ls_extinction_coef       0.173(14)
_refine_ls_extinction_expression Fc^*^=kFc[1+0.001xFc^2^\l^3^/sin(2\q)]^-1/4^
_refine_ls_extinction_method     'SHELXL-2014/7 (Sheldrick 2014'
_refine_ls_goodness_of_fit_ref   2.021
_refine_ls_hydrogen_treatment    undef
_refine_ls_matrix_type           full
_refine_ls_number_parameters     59
_refine_ls_number_reflns         1063
_refine_ls_number_restraints     0
_refine_ls_restrained_S_all      2.021
_refine_ls_R_factor_all          0.0418
_refine_ls_R_factor_gt           0.0413
_refine_ls_shift/su_max          0.001
_refine_ls_shift/su_mean         0.000
_refine_ls_structure_factor_coef Fsqd
_refine_ls_weighting_details
'w=1/[\s^2^(Fo^2^)+(0.0388P)^2^+0.4531P] where P=(Fo^2^+2Fc^2^)/3'
_refine_ls_weighting_scheme      calc
_refine_ls_wR_factor_gt          0.1266
_refine_ls_wR_factor_ref         0.1270
_reflns_Friedel_coverage         0.000
_reflns_number_gt                1045
_reflns_number_total             1063
_reflns_threshold_expression     'I > 2\s(I)'
_cod_data_source_file            d1ce00750e2.cif
_cod_data_source_block           d
_cod_depositor_comments
'Adding full bibliography for 7243341--7243343.cif.'
_cod_database_code               7243343
_shelx_shelxl_version_number     2014/7
_shelx_space_group_comment
;
The symmetry employed for this shelxl refinement is uniquely defined
by the following loop, which should always be used as a source of
symmetry information in preference to the above space-group names.
They are only intended as comments.
;
_shelx_res_file
;

    d.res created by SHELXL-2014/7


TITL a_a.res in Pbam
REM Old TITL Ni_Mn_Cu_111_0ma in Pbam

REM SHELXT solution in Pbam
REM R1 0.082,  Rweak 0.003,  Alpha 0.040,  Orientation as input
REM Formula found by SHELXT:  O12 Mn5 Ni

CELL  0.71073   9.1735  12.2939   3.0018   90.000   90.000   90.000
ZERR    2.000   0.0002   0.0003   0.0001    0.000    0.000    0.000
LATT  1
SYMM -X, -Y, Z
SYMM 1/2-X, 1/2+Y, -Z
SYMM 1/2+X, 1/2-Y, -Z
SFAC B O Cu Ni Mn
UNIT 2 10 2 6 1
TEMP 23.000
L.S. 40
BOND $H
ACTA 50
LIST 6
EXYZ NI3 CU3
EADP NI3 CU3

ACTA 50
FMAP 2
PLAN 20
WGHT    0.038800    0.453100
EXTI    0.172947
FVAR       0.92734   1.00000
NI1   4    1.000000    0.000000    0.000000    10.25000    0.00418    0.00425 =
         0.00887    0.00000    0.00000    0.00048
NI2   4    0.500000    0.000000    0.500000    10.25000    0.00594    0.00334 =
         0.00895    0.00000    0.00000   -0.00036
NI3   4    0.998008    0.280436    0.000000    10.25000    0.00597    0.00398 =
         0.01107    0.00000    0.00000   -0.00053
CU3   3    0.998008    0.280436    0.000000    10.25000    0.00597    0.00398 =
         0.01107    0.00000    0.00000   -0.00053
MN4   5    0.760174    0.115446    0.500000    10.50000    0.00134    0.00108 =
         0.00577    0.00000    0.00000    0.00036
B     1    0.723760    0.362107    0.500000    10.50000    0.00448    0.00661 =
         0.00800    0.00000    0.00000    0.00122
O1    2    0.893518    0.143402    0.000000    10.50000    0.00663    0.00580 =
         0.01517    0.00000    0.00000   -0.00041
O2    2    0.646678    0.264073    0.500000    10.50000    0.00843    0.00545 =
         0.01430    0.00000    0.00000   -0.00236
O3    2    0.852163   -0.041939    0.500000    10.50000    0.00684    0.00565 =
         0.01227    0.00000    0.00000   -0.00138
O4    2    0.612959    0.080086    0.000000    10.50000    0.00727    0.00651 =
         0.01886    0.00000    0.00000   -0.00012
O5    2    0.873592    0.359024   -0.500000    10.50000    0.00469    0.00703 =
         0.01344    0.00000    0.00000   -0.00036
HKLF 4

REM  a_a.res in Pbam
REM R1 =  0.0413 for    1045 Fo > 4sig(Fo)  and  0.0418 for all    1063 data
REM     59 parameters refined using      0 restraints

END

WGHT      0.0725      2.1354

REM Highest difference peak  3.999,  deepest hole -2.453,  1-sigma level  0.372
Q1    1   0.5009  0.2786  0.5000  10.50000  0.05    1.94
Q2    1   0.9997  0.2815  0.2489  11.00000  0.05    1.70
Q3    1   0.5000  0.0000  0.2771  10.50000  0.05    1.58
Q4    1   1.0000  0.0000  0.2237  10.50000  0.05    1.54
Q5    1   0.7578  0.3934  0.5000  10.50000  0.05    1.47
Q6    1   0.7546  0.1076  0.0000  10.50000  0.05    1.37
Q7    1   0.7506  0.3895  0.0000  10.50000  0.05    1.25
Q8    1   0.6087  0.3613  0.0000  10.50000  0.05    1.09
Q9    1   1.0002 -0.0612  0.5898  11.00000  0.05    1.04
Q10   1   0.5009  0.0613  0.0000  10.50000  0.05    1.02
Q11   1   0.7544  0.3301  0.5000  10.50000  0.05    0.99
Q12   1   0.9124  0.2877  0.0000  10.50000  0.05    0.97
Q13   1   1.0859  0.2912  0.0000  10.50000  0.05    0.86
Q14   1   0.6354  0.1289  0.5000  10.50000  0.05    0.84
Q15   1   0.9972  0.3491  0.0000  10.50000  0.05    0.79
Q16   1   0.5794 -0.0005  0.5000  10.50000  0.05    0.75
Q17   1   0.9905 -0.1221  0.5000  10.50000  0.05    0.69
Q18   1   0.7609  0.0390  0.3516  11.00000  0.05    0.65
Q19   1   1.0177  0.1515  0.0000  10.50000  0.05    0.65
Q20   1   0.9437  0.1339 -0.5000  10.50000  0.05    0.61
;
_shelx_res_checksum              12539
loop_
_space_group_symop_operation_xyz
'x, y, z'
'-x, -y, z'
'-x+1/2, y+1/2, -z'
'x+1/2, -y+1/2, -z'
'-x, -y, -z'
'x, y, -z'
'x-1/2, -y-1/2, z'
'-x-1/2, y-1/2, z'
loop_
_atom_site_label
_atom_site_type_symbol
_atom_site_fract_x
_atom_site_fract_y
_atom_site_fract_z
_atom_site_U_iso_or_equiv
_atom_site_adp_type
_atom_site_occupancy
_atom_site_site_symmetry_order
_atom_site_calc_flag
_atom_site_refinement_flags_posn
_atom_site_refinement_flags_adp
_atom_site_refinement_flags_occupancy
_atom_site_disorder_assembly
_atom_site_disorder_group
Ni1 Ni 1.0000 0.0000 0.0000 0.00577(18) Uani 1 4 d S T P . .
Ni2 Ni 0.5000 0.0000 0.5000 0.00608(18) Uani 1 4 d S T P . .
Ni3 Ni 0.99801(4) 0.28044(4) 0.0000 0.00701(17) Uani 0.5 2 d S T P . .
Cu3 Cu 0.99801(4) 0.28044(4) 0.0000 0.00701(17) Uani 0.5 2 d S T P . .
Mn4 Mn 0.76017(5) 0.11545(4) 0.5000 0.00273(16) Uani 1 2 d S T P . .
B B 0.7238(4) 0.3621(3) 0.5000 0.0064(6) Uani 1 2 d S T P . .
O1 O 0.8935(3) 0.1434(2) 0.0000 0.0092(5) Uani 1 2 d S T P . .
O2 O 0.6467(3) 0.2641(2) 0.5000 0.0094(4) Uani 1 2 d S T P . .
O3 O 0.8522(3) -0.0419(2) 0.5000 0.0083(4) Uani 1 2 d S T P . .
O4 O 0.6130(3) 0.0801(2) 0.0000 0.0109(5) Uani 1 2 d S T P . .
O5 O 0.8736(3) 0.3590(2) -0.5000 0.0084(5) Uani 1 2 d S T P . .
loop_
_atom_site_aniso_label
_atom_site_aniso_U_11
_atom_site_aniso_U_22
_atom_site_aniso_U_33
_atom_site_aniso_U_23
_atom_site_aniso_U_13
_atom_site_aniso_U_12
Ni1 0.0042(3) 0.0043(3) 0.0089(3) 0.000 0.000 0.00048(15)
Ni2 0.0059(3) 0.0033(3) 0.0090(3) 0.000 0.000 -0.00036(15)
Ni3 0.0060(2) 0.0040(2) 0.0111(3) 0.000 0.000 -0.00053(11)
Cu3 0.0060(2) 0.0040(2) 0.0111(3) 0.000 0.000 -0.00053(11)
Mn4 0.0013(2) 0.0011(2) 0.0058(2) 0.000 0.000 0.00036(12)
B 0.0045(13) 0.0066(15) 0.0080(14) 0.000 0.000 0.0012(9)
O1 0.0066(10) 0.0058(10) 0.0152(12) 0.000 0.000 -0.0004(7)
O2 0.0084(10) 0.0054(9) 0.0143(10) 0.000 0.000 -0.0024(7)
O3 0.0068(9) 0.0056(9) 0.0123(10) 0.000 0.000 -0.0014(7)
O4 0.0073(10) 0.0065(10) 0.0189(12) 0.000 0.000 -0.0001(8)
O5 0.0047(9) 0.0070(10) 0.0134(11) 0.000 0.000 -0.0004(7)
loop_
_atom_type_symbol
_atom_type_description
_atom_type_scat_dispersion_real
_atom_type_scat_dispersion_imag
_atom_type_scat_source
B B 0.0013 0.0007 'International Tables Vol C Tables 4.2.6.8 and 6.1.1.4'
O O 0.0106 0.0060 'International Tables Vol C Tables 4.2.6.8 and 6.1.1.4'
Cu Cu 0.3201 1.2651 'International Tables Vol C Tables 4.2.6.8 and 6.1.1.4'
Ni Ni 0.3393 1.1124 'International Tables Vol C Tables 4.2.6.8 and 6.1.1.4'
Mn Mn 0.3368 0.7283 'International Tables Vol C Tables 4.2.6.8 and 6.1.1.4'
loop_
_geom_angle_atom_site_label_1
_geom_angle_atom_site_label_2
_geom_angle_atom_site_label_3
_geom_angle
_geom_angle_site_symmetry_1
_geom_angle_site_symmetry_3
_geom_angle_publ_flag
O1 Ni1 O1 180.0 . 5_755 ?
O1 Ni1 O3 95.67(9) . 5_756 ?
O1 Ni1 O3 84.33(9) 5_755 5_756 ?
O1 Ni1 O3 84.33(9) . 1_554 ?
O1 Ni1 O3 95.67(9) 5_755 1_554 ?
O3 Ni1 O3 180.00(11) 5_756 1_554 ?
O1 Ni1 O3 84.33(9) . . ?
O1 Ni1 O3 95.67(9) 5_755 . ?
O3 Ni1 O3 88.06(10) 5_756 . ?
O3 Ni1 O3 91.94(10) 1_554 . ?
O1 Ni1 O3 95.67(9) . 5_755 ?
O1 Ni1 O3 84.33(9) 5_755 5_755 ?
O3 Ni1 O3 91.94(10) 5_756 5_755 ?
O3 Ni1 O3 88.06(10) 1_554 5_755 ?
O3 Ni1 O3 180.0 . 5_755 ?
O1 Ni1 Mn4 40.12(5) . . ?
O1 Ni1 Mn4 139.88(5) 5_755 . ?
O3 Ni1 Mn4 89.99(6) 5_756 . ?
O3 Ni1 Mn4 90.01(6) 1_554 . ?
O3 Ni1 Mn4 44.35(7) . . ?
O3 Ni1 Mn4 135.65(7) 5_755 . ?
O1 Ni1 Mn4 139.88(5) . 5_756 ?
O1 Ni1 Mn4 40.12(5) 5_755 5_756 ?
O3 Ni1 Mn4 44.35(7) 5_756 5_756 ?
O3 Ni1 Mn4 135.65(7) 1_554 5_756 ?
O3 Ni1 Mn4 89.99(6) . 5_756 ?
O3 Ni1 Mn4 90.01(6) 5_755 5_756 ?
Mn4 Ni1 Mn4 120.351(9) . 5_756 ?
O1 Ni1 Mn4 40.12(5) . 1_554 ?
O1 Ni1 Mn4 139.88(5) 5_755 1_554 ?
O3 Ni1 Mn4 135.65(7) 5_756 1_554 ?
O3 Ni1 Mn4 44.35(7) 1_554 1_554 ?
O3 Ni1 Mn4 90.01(6) . 1_554 ?
O3 Ni1 Mn4 89.99(6) 5_755 1_554 ?
Mn4 Ni1 Mn4 59.649(9) . 1_554 ?
Mn4 Ni1 Mn4 180.00(2) 5_756 1_554 ?
O1 Ni1 Mn4 139.88(5) . 5_755 ?
O1 Ni1 Mn4 40.12(5) 5_755 5_755 ?
O3 Ni1 Mn4 90.01(6) 5_756 5_755 ?
O3 Ni1 Mn4 89.99(6) 1_554 5_755 ?
O3 Ni1 Mn4 135.65(7) . 5_755 ?
O3 Ni1 Mn4 44.35(7) 5_755 5_755 ?
Mn4 Ni1 Mn4 180.0 . 5_755 ?
Mn4 Ni1 Mn4 59.649(9) 5_756 5_755 ?
Mn4 Ni1 Mn4 120.351(9) 1_554 5_755 ?
O4 Ni2 O4 87.20(11) . 5_655 ?
O4 Ni2 O4 92.80(11) . 1_556 ?
O4 Ni2 O4 180.00(14) 5_655 1_556 ?
O4 Ni2 O4 180.0 . 5_656 ?
O4 Ni2 O4 92.80(11) 5_655 5_656 ?
O4 Ni2 O4 87.20(11) 1_556 5_656 ?
O4 Ni2 O5 83.29(9) . 7_566 ?
O4 Ni2 O5 96.71(9) 5_655 7_566 ?
O4 Ni2 O5 83.29(9) 1_556 7_566 ?
O4 Ni2 O5 96.71(9) 5_656 7_566 ?
O4 Ni2 O5 96.71(9) . 3_645 ?
O4 Ni2 O5 83.29(9) 5_655 3_645 ?
O4 Ni2 O5 96.71(9) 1_556 3_645 ?
O4 Ni2 O5 83.29(9) 5_656 3_645 ?
O5 Ni2 O5 180.0 7_566 3_645 ?
O4 Ni2 Mn4 47.74(6) . . ?
O4 Ni2 Mn4 132.26(6) 5_655 . ?
O4 Ni2 Mn4 47.74(6) 1_556 . ?
O4 Ni2 Mn4 132.26(6) 5_656 . ?
O5 Ni2 Mn4 93.05(7) 7_566 . ?
O5 Ni2 Mn4 86.95(7) 3_645 . ?
O4 Ni2 Mn4 132.26(6) . 5_656 ?
O4 Ni2 Mn4 47.74(6) 5_655 5_656 ?
O4 Ni2 Mn4 132.26(6) 1_556 5_656 ?
O4 Ni2 Mn4 47.74(6) 5_656 5_656 ?
O5 Ni2 Mn4 86.95(7) 7_566 5_656 ?
O5 Ni2 Mn4 93.05(7) 3_645 5_656 ?
Mn4 Ni2 Mn4 180.0 . 5_656 ?
O1 Ni3 O4 178.05(11) . 7_665 ?
O1 Ni3 O2 95.43(9) . 7_665 ?
O4 Ni3 O2 83.21(9) 7_665 7_665 ?
O1 Ni3 O2 95.43(9) . 7_664 ?
O4 Ni3 O2 83.21(9) 7_665 7_664 ?
O2 Ni3 O2 91.21(10) 7_665 7_664 ?
O1 Ni3 O5 97.47(9) . . ?
O4 Ni3 O5 83.90(9) 7_665 . ?
O2 Ni3 O5 167.10(11) 7_665 . ?
O2 Ni3 O5 87.84(7) 7_664 . ?
O1 Ni3 O5 97.47(9) . 1_556 ?
O4 Ni3 O5 83.90(9) 7_665 1_556 ?
O2 Ni3 O5 87.84(7) 7_665 1_556 ?
O2 Ni3 O5 167.10(11) 7_664 1_556 ?
O5 Ni3 O5 90.21(10) . 1_556 ?
O1 Ni3 Cu3 90.0 . 1_554 ?
O4 Ni3 Cu3 90.0 7_665 1_554 ?
O2 Ni3 Cu3 135.60(5) 7_665 1_554 ?
O2 Ni3 Cu3 44.39(5) 7_664 1_554 ?
O5 Ni3 Cu3 44.89(5) . 1_554 ?
O5 Ni3 Cu3 135.11(5) 1_556 1_554 ?
O1 Ni3 Cu3 90.0 . 1_556 ?
O4 Ni3 Cu3 90.0 7_665 1_556 ?
O2 Ni3 Cu3 44.39(5) 7_665 1_556 ?
O2 Ni3 Cu3 135.61(5) 7_664 1_556 ?
O5 Ni3 Cu3 135.11(5) . 1_556 ?
O5 Ni3 Cu3 44.89(5) 1_556 1_556 ?
Cu3 Ni3 Cu3 180.0 1_554 1_556 ?
O1 Ni3 Mn4 137.73(6) . 7_665 ?
O4 Ni3 Mn4 40.93(5) 7_665 7_665 ?
O2 Ni3 Mn4 42.30(7) 7_665 7_665 ?
O2 Ni3 Mn4 87.13(7) 7_664 7_665 ?
O5 Ni3 Mn4 124.80(7) . 7_665 ?
O5 Ni3 Mn4 83.51(7) 1_556 7_665 ?
Cu3 Ni3 Mn4 118.851(6) 1_554 7_665 ?
Cu3 Ni3 Mn4 61.149(6) 1_556 7_665 ?
O1 Ni3 Mn4 137.73(6) . 7_664 ?
O4 Ni3 Mn4 40.93(5) 7_665 7_664 ?
O2 Ni3 Mn4 87.13(7) 7_665 7_664 ?
O2 Ni3 Mn4 42.30(7) 7_664 7_664 ?
O5 Ni3 Mn4 83.51(7) . 7_664 ?
O5 Ni3 Mn4 124.80(7) 1_556 7_664 ?
Cu3 Ni3 Mn4 61.149(6) 1_554 7_664 ?
Cu3 Ni3 Mn4 118.851(6) 1_556 7_664 ?
Mn4 Ni3 Mn4 57.702(11) 7_665 7_664 ?
O1 Mn4 O1 99.50(13) 1_556 . ?
O1 Mn4 O4 176.55(8) 1_556 . ?
O1 Mn4 O4 83.62(9) . . ?
O1 Mn4 O4 83.62(9) 1_556 1_556 ?
O1 Mn4 O4 176.55(8) . 1_556 ?
O4 Mn4 O4 93.22(11) . 1_556 ?
O1 Mn4 O2 98.98(9) 1_556 . ?
O1 Mn4 O2 98.98(9) . . ?
O4 Mn4 O2 81.90(9) . . ?
O4 Mn4 O2 81.90(9) 1_556 . ?
O1 Mn4 O3 84.92(9) 1_556 . ?
O1 Mn4 O3 84.92(9) . . ?
O4 Mn4 O3 93.93(9) . . ?
O4 Mn4 O3 93.93(9) 1_556 . ?
O2 Mn4 O3 173.89(10) . . ?
O1 Mn4 Ni2 128.61(6) 1_556 . ?
O1 Mn4 Ni2 128.61(6) . . ?
O4 Mn4 Ni2 47.96(6) . . ?
O4 Mn4 Ni2 47.96(6) 1_556 . ?
O2 Mn4 Ni2 91.06(7) . . ?
O3 Mn4 Ni2 82.83(7) . . ?
O1 Mn4 Mn4 40.25(7) 1_556 1_556 ?
O1 Mn4 Mn4 139.75(7) . 1_556 ?
O4 Mn4 Mn4 136.61(6) . 1_556 ?
O4 Mn4 Mn4 43.39(6) 1_556 1_556 ?
O2 Mn4 Mn4 90.0 . 1_556 ?
O3 Mn4 Mn4 90.0 . 1_556 ?
Ni2 Mn4 Mn4 90.0 . 1_556 ?
O1 Mn4 Mn4 139.75(7) 1_556 1_554 ?
O1 Mn4 Mn4 40.25(7) . 1_554 ?
O4 Mn4 Mn4 43.39(6) . 1_554 ?
O4 Mn4 Mn4 136.61(6) 1_556 1_554 ?
O2 Mn4 Mn4 90.0 . 1_554 ?
O3 Mn4 Mn4 90.0 . 1_554 ?
Ni2 Mn4 Mn4 90.0 . 1_554 ?
Mn4 Mn4 Mn4 180.0 1_556 1_554 ?
O1 Mn4 Ni1 41.33(7) 1_556 1_556 ?
O1 Mn4 Ni1 90.48(7) . 1_556 ?
O4 Mn4 Ni1 137.66(8) . 1_556 ?
O4 Mn4 Ni1 90.93(7) 1_556 1_556 ?
O2 Mn4 Ni1 140.31(5) . 1_556 ?
O3 Mn4 Ni1 43.74(5) . 1_556 ?
Ni2 Mn4 Ni1 112.719(14) . 1_556 ?
Mn4 Mn4 Ni1 60.176(5) 1_556 1_556 ?
Mn4 Mn4 Ni1 119.825(5) 1_554 1_556 ?
O1 Mn4 Ni1 90.48(7) 1_556 . ?
O1 Mn4 Ni1 41.33(7) . . ?
O4 Mn4 Ni1 90.93(7) . . ?
O4 Mn4 Ni1 137.66(8) 1_556 . ?
O2 Mn4 Ni1 140.31(5) . . ?
O3 Mn4 Ni1 43.74(5) . . ?
Ni2 Mn4 Ni1 112.719(14) . . ?
Mn4 Mn4 Ni1 119.825(5) 1_556 . ?
Mn4 Mn4 Ni1 60.176(5) 1_554 . ?
Ni1 Mn4 Ni1 59.649(9) 1_556 . ?
O1 Mn4 Cu3 141.01(8) 1_556 7_565 ?
O1 Mn4 Cu3 92.34(7) . 7_565 ?
O4 Mn4 Cu3 39.68(8) . 7_565 ?
O4 Mn4 Cu3 86.08(7) 1_556 7_565 ?
O2 Mn4 Cu3 42.24(5) . 7_565 ?
O3 Mn4 Cu3 133.34(6) . 7_565 ?
Ni2 Mn4 Cu3 62.985(12) . 7_565 ?
Mn4 Mn4 Cu3 118.851(6) 1_556 7_565 ?
Mn4 Mn4 Cu3 61.149(6) 1_554 7_565 ?
Ni1 Mn4 Cu3 175.702(19) 1_556 7_565 ?
Ni1 Mn4 Cu3 121.146(4) . 7_565 ?
O3 B O2 119.0(3) 3_656 . ?
O3 B O5 122.1(3) 3_656 1_556 ?
O2 B O5 118.8(3) . 1_556 ?
Ni3 O1 Mn4 117.35(9) . 1_554 ?
Ni3 O1 Mn4 117.36(9) . . ?
Mn4 O1 Mn4 99.50(13) 1_554 . ?
Ni3 O1 Ni1 121.37(15) . . ?
Mn4 O1 Ni1 98.55(9) 1_554 . ?
Mn4 O1 Ni1 98.55(9) . . ?
B O2 Mn4 119.9(2) . . ?
B O2 Cu3 123.59(13) . 7_565 ?
Mn4 O2 Cu3 95.46(9) . 7_565 ?
B O2 Ni3 123.59(13) . 7_565 ?
Mn4 O2 Ni3 95.46(9) . 7_565 ?
Cu3 O2 Ni3 0.0 7_565 7_565 ?
B O2 Cu3 123.59(13) . 7_566 ?
Mn4 O2 Cu3 95.46(9) . 7_566 ?
Cu3 O2 Cu3 91.21(10) 7_565 7_566 ?
Ni3 O2 Cu3 91.21(10) 7_565 7_566 ?
B O2 Ni3 123.59(13) . 7_566 ?
Mn4 O2 Ni3 95.46(9) . 7_566 ?
Cu3 O2 Ni3 91.2 7_565 7_566 ?
Ni3 O2 Ni3 91.21(10) 7_565 7_566 ?
Cu3 O2 Ni3 0.0 7_566 7_566 ?
B O3 Ni1 122.89(13) 3_646 1_556 ?
B O3 Ni1 122.89(13) 3_646 . ?
Ni1 O3 Ni1 91.94(10) 1_556 . ?
B O3 Mn4 125.9(2) 3_646 . ?
Ni1 O3 Mn4 91.91(9) 1_556 . ?
Ni1 O3 Mn4 91.91(9) . . ?
Cu3 O4 Ni3 0.0 7_565 7_565 ?
Cu3 O4 Mn4 99.39(10) 7_565 . ?
Ni3 O4 Mn4 99.39(10) 7_565 . ?
Cu3 O4 Mn4 99.39(10) 7_565 1_554 ?
Ni3 O4 Mn4 99.39(10) 7_565 1_554 ?
Mn4 O4 Mn4 93.22(11) . 1_554 ?
Cu3 O4 Ni2 98.21(10) 7_565 1_554 ?
Ni3 O4 Ni2 98.21(10) 7_565 1_554 ?
Mn4 O4 Ni2 162.39(16) . 1_554 ?
Mn4 O4 Ni2 84.30(2) 1_554 1_554 ?
Cu3 O4 Ni2 98.21(10) 7_565 . ?
Ni3 O4 Ni2 98.21(10) 7_565 . ?
Mn4 O4 Ni2 84.30(2) . . ?
Mn4 O4 Ni2 162.39(16) 1_554 . ?
Ni2 O4 Ni2 92.80(11) 1_554 . ?
B O5 Ni2 122.2(2) 1_554 3_655 ?
B O5 Ni3 123.44(13) 1_554 . ?
Ni2 O5 Ni3 94.56(9) 3_655 . ?
B O5 Ni3 123.44(13) 1_554 1_554 ?
Ni2 O5 Ni3 94.56(9) 3_655 1_554 ?
Ni3 O5 Ni3 90.21(10) . 1_554 ?
B O5 Cu3 123.44(13) 1_554 1_554 ?
Ni2 O5 Cu3 94.56(9) 3_655 1_554 ?
Ni3 O5 Cu3 90.2 . 1_554 ?
Ni3 O5 Cu3 0.000(19) 1_554 1_554 ?
loop_
_geom_bond_atom_site_label_1
_geom_bond_atom_site_label_2
_geom_bond_distance
_geom_bond_site_symmetry_2
_geom_bond_publ_flag
Ni1 O1 2.015(3) . ?
Ni1 O1 2.016(3) 5_755 ?
Ni1 O3 2.0875(18) 5_756 ?
Ni1 O3 2.0875(18) 1_554 ?
Ni1 O3 2.0875(18) . ?
Ni1 O3 2.0875(18) 5_755 ?
Ni1 Mn4 3.0178(4) . ?
Ni1 Mn4 3.0178(4) 5_756 ?
Ni1 Mn4 3.0178(4) 1_554 ?
Ni1 Mn4 3.0178(4) 5_755 ?
Ni2 O4 2.0726(19) . ?
Ni2 O4 2.0727(19) 5_655 ?
Ni2 O4 2.0727(19) 1_556 ?
Ni2 O4 2.0727(19) 5_656 ?
Ni2 O5 2.085(3) 7_566 ?
Ni2 O5 2.085(3) 3_645 ?
Ni2 Mn4 2.7768(5) . ?
Ni2 Mn4 2.7769(5) 5_656 ?
Ni3 O1 1.938(3) . ?
Ni3 O4 2.013(3) 7_665 ?
Ni3 O2 2.1005(18) 7_665 ?
Ni3 O2 2.1005(18) 7_664 ?
Ni3 O5 2.1187(19) . ?
Ni3 O5 2.1187(19) 1_556 ?
Ni3 Cu3 3.00180(10) 1_554 ?
Ni3 Cu3 3.00180(10) 1_556 ?
Ni3 Mn4 3.1105(5) 7_665 ?
Ni3 Mn4 3.1105(5) 7_664 ?
Mn4 O1 1.9665(19) 1_556 ?
Mn4 O1 1.9665(19) . ?
Mn4 O4 2.0653(19) . ?
Mn4 O4 2.0653(19) 1_556 ?
Mn4 O2 2.103(3) . ?
Mn4 O3 2.111(3) . ?
Mn4 Mn4 3.00180(9) 1_556 ?
Mn4 Mn4 3.00180(10) 1_554 ?
Mn4 Ni1 3.0178(4) 1_556 ?
Mn4 Cu3 3.1105(5) 7_565 ?
B O3 1.370(5) 3_656 ?
B O2 1.397(5) . ?
B O5 1.375(5) 1_556 ?
O1 Mn4 1.9665(19) 1_554 ?
O2 Cu3 2.1005(18) 7_565 ?
O2 Ni3 2.1005(18) 7_565 ?
O2 Cu3 2.1005(18) 7_566 ?
O2 Ni3 2.1005(18) 7_566 ?
O3 B 1.370(5) 3_646 ?
O3 Ni1 2.0875(18) 1_556 ?
O4 Cu3 2.013(3) 7_565 ?
O4 Ni3 2.013(3) 7_565 ?
O4 Mn4 2.0653(19) 1_554 ?
O4 Ni2 2.0726(19) 1_554 ?
O5 B 1.375(5) 1_554 ?
O5 Ni2 2.085(3) 3_655 ?
O5 Ni3 2.1187(19) 1_554 ?
O5 Cu3 2.1187(19) 1_554 ?
