#------------------------------------------------------------------------------
#$Date: 2021-09-06 14:08:26 +0300 (Mon, 06 Sep 2021) $
#$Revision: 268751 $
#$URL: file:///home/coder/svn-repositories/cod/cif/7/70/79/7707929.cif $
#------------------------------------------------------------------------------
#
# This file is available in the Crystallography Open Database (COD),
# http://www.crystallography.net/
#
# All data on this site have been placed in the public domain by the
# contributors.
#
data_7707929
loop_
_publ_author_name
'Saura-M\'uzquiz, Matilde'
'Mullens, Bryce G.'
'Maynard-Casely, Helen E'
'Kennedy, Brendan J.'
_publ_section_title
;
 Neutron diffraction study of the monoclinic - tetragonal&#x00A0;phase
 transition in NdNbO<sub>4</sub> and NdTaO<sub>4</sub>.
;
_journal_issue                   33
_journal_name_full
'Dalton transactions (Cambridge, England : 2003)'
_journal_page_first              11485
_journal_page_last               11497
_journal_paper_doi               10.1039/d1dt01981c
_journal_volume                  50
_journal_year                    2021
_chemical_formula_sum            'Nb Nd O4'
_chemical_formula_weight         301.14
_space_group_IT_number           88
_space_group_name_Hall           '-I 4ad'
_space_group_name_H-M_alt        'I 41/a :2'
_symmetry_cell_setting           tetragonal
_symmetry_space_group_name_H-M   'I 41/a :2'
_audit_creation_date             2021-05-28T16:20
_audit_creation_method           'from EXP file using GSAS2CIF'
_audit_update_record
' 2021-05-28T16:20  Initial CIF as created by GSAS2CIF'
_cell_angle_alpha                90.0
_cell_angle_beta                 90.0
_cell_angle_gamma                90.0
_cell_formula_units_Z            4
_cell_length_a                   5.33980(22)
_cell_length_b                   5.3398
_cell_length_c                   11.4765(6)
_cell_volume                     327.23(2)
_computing_structure_refinement  GSAS
_diffrn_radiation_probe          neutron
_diffrn_radiation_wavelength     1.5413
_exptl_absorpt_correction_T_max  1.00000
_exptl_absorpt_correction_T_min  1.00000
_exptl_absorpt_process_details
;   GSAS Absorption/surface roughness correction: function number 0
 No correction is applied.
;
_pd_block_id
2021-05-28T16:20|NDNBO4_HEATING_TETRA|bjk|Wombat
_pd_calc_method                  'Rietveld Refinement'
_pd_instr_location               ' ?'
_pd_meas_2theta_range_inc        0.0625
_pd_meas_2theta_range_max        132.4383
_pd_meas_2theta_range_min        19.5008
_pd_meas_number_of_points        1808
_pd_phase_name                   Tetragonal
_pd_proc_2theta_range_inc        0.0625
_pd_proc_2theta_range_max        132.368
_pd_proc_2theta_range_min        19.4305
_pd_proc_info_datetime           2021-05-28T16:20:40
_pd_proc_info_excluded_regions   ' ?'
_pd_proc_ls_background_function
;   GSAS Background function number 1 with 10 terms.
 Shifted Chebyshev function of 1st kind
      1:    692.224     2:    70.9179     3:   -4.79683     4:    18.9413    
      5:    4.85556     6:   -5.14556     7:    1.60380     8:   -6.47236    
      9:    5.57170    10:    8.24937    
;
_pd_proc_ls_peak_cutoff          0.00100
_pd_proc_ls_profile_function
;
 CW Profile function number 4 with  17 terms
 Pseudovoigt profile coefficients as parameterized in
 P. Thompson, D.E. Cox & J.B. Hastings (1987). J. Appl. Cryst.,20,79-83.
 Asymmetry correction of L.W. Finger, D.E. Cox & A. P. Jephcoat (1994).
 J. Appl. Cryst.,27,892-900.
 Microstrain broadening by P.W. Stephens,  (1999). J. Appl. Cryst.,32,281-289.
 #1(GU)   =  909.582 #2(GV)   = ******** #3(GW)   =  547.610
 #4(GP)   =    0.000 #5(LX)   =    7.992 #6(ptec) =     0.00
 #7(trns) =     0.00 #8(shft) =   0.0000 #9(sfec) =     0.00
 #10(S/L) =   0.0500 #11(H/L) =   0.0500 #12(eta) =   0.0000
 #13(S400 ) =  0.0E+00 #14(S004 ) =  0.0E+00 #15(S220 ) =  0.0E+00
 #16(S202 ) =  0.0E+00 #17(S310 ) =  0.0E+00
 Peak tails are ignored  where the intensity is below 0.0010 times the peak
   Aniso. broadening axis   0.0   0.0   1.0
;
_pd_proc_ls_prof_R_factor        0.0342
_pd_proc_ls_prof_wR_expected     0.0341
_pd_proc_ls_prof_wR_factor       0.0431
_pd_proc_number_of_points        1808
_pd_spec_mounting                ' ?'
_refine_ls_goodness_of_fit_all   1.27
_refine_ls_matrix_type           full
_refine_ls_number_parameters     24
_refine_ls_number_restraints     0
_refine_ls_R_Fsqd_factor         0.09777
_refine_ls_shift/su_max          0.02
_refine_ls_shift/su_mean         0.01
_reflns_d_resolution_high        0.844
_reflns_d_resolution_low         3.154
_reflns_limit_h_max              6
_reflns_limit_h_min              0
_reflns_limit_k_max              6
_reflns_limit_k_min              0
_reflns_limit_l_max              13
_reflns_limit_l_min              0
_reflns_number_total             144
_cod_data_source_file            d1dt01981c2.cif
_cod_data_source_block           NDNBO4_HEATING_TETRA_publ
_cod_depositor_comments
;
The following automatic conversions were performed:

data item '_geom_angle_publ_flag' value 'N' was changed to 'n' in
accordance with the
/home/data/users/saulius/crontab/automatic-downloads/rss-feeds/RSC/lib/dictionaries/cif_core.dic
dictionary named 'cif_core.dic' version 2.4.2 last updated on
2011-04-26 (37 times).

data item '_geom_bond_publ_flag' value 'N' was changed to 'n' in
accordance with the
/home/data/users/saulius/crontab/automatic-downloads/rss-feeds/RSC/lib/dictionaries/cif_core.dic
dictionary named 'cif_core.dic' version 2.4.2 last updated on
2011-04-26 (44 times).

Automatic conversion script
Id: cif_fix_values 7556 2019-12-06 15:28:31Z antanas 

 Adding full bibliography for 7707929--7707932.cif.
;
_cod_original_cell_volume        327.23(4)
_cod_original_sg_symbol_H-M      'I 41/a'
_cod_database_code               7707929
_gsas_exptl_extinct_corr_t_min   1.00000
_gsas_exptl_extinct_corr_t_max   1.00000
loop_
_symmetry_equiv_pos_site_id
_symmetry_equiv_pos_as_xyz
1 +x,+y,+z
2 -y+3/4,+x+1/4,+z+1/4
3 -x+1/2,-y,+z+1/2
4 +y+3/4,-x+3/4,+z+3/4
-1 -x,-y,-z
-2 +y+1/4,-x+3/4,-z+3/4
-3 +x+1/2,+y,-z+1/2
-4 -y+1/4,+x+1/4,-z+1/4
101 +x+1/2,+y+1/2,+z+1/2
102 -y+1/4,+x+3/4,+z+3/4
103 -x,-y+1/2,+z
104 +y+1/4,-x+1/4,+z+1/4
-101 -x+1/2,-y+1/2,-z+1/2
-102 +y+3/4,-x+1/4,-z+1/4
-103 +x,+y+1/2,-z
-104 -y+3/4,+x+3/4,-z+3/4
loop_
_atom_site_type_symbol
_atom_site_label
_atom_site_fract_x
_atom_site_fract_y
_atom_site_fract_z
_atom_site_occupancy
_atom_site_thermal_displace_type
_atom_site_U_iso_or_equiv
_atom_site_symmetry_multiplicity
Nb Nb1 0.0 0.25 0.125 1.0 Uiso 0.0350(10) 4
Nd Nd1 0.0 0.25 0.625 1.0 Uiso 0.0257(7) 4
O- O1 0.16454(32) 0.0009(5) 0.21203(18) 1.0 Uiso 0.0443(6) 16
loop_
_atom_type_symbol
_atom_type_number_in_cell
_atom_type_scat_length_neutron
_atom_type_scat_source
Nb 4.0 0.7054 International_Tables_Vol_C
Nd 4.0 0.7690 International_Tables_Vol_C
O-2 16.0 0.5803 International_Tables_Vol_C
loop_
_geom_angle_atom_site_label_1
_geom_angle_atom_site_label_2
_geom_angle_atom_site_label_3
_geom_angle
_geom_angle_site_symmetry_1
_geom_angle_site_symmetry_2
_geom_angle_site_symmetry_3
_geom_angle_publ_flag
O1 Nb1 O1 106.38(6) 1_555 . -4_555 n
O1 Nb1 O1 115.85(13) 1_555 . 103_343 n
O1 Nb1 O1 106.38(6) 1_555 . -102_444 n
O1 Nb1 O1 106.38(6) -4_555 . 103_343 n
O1 Nb1 O1 115.85(13) -4_555 . -102_444 n
O1 Nb1 O1 106.38(6) 103_343 . -102_444 n
O1 Nd1 O1 154.50(8) 2_455 . 3_555 n
O1 Nd1 O1 125.22(6) 2_455 . -1_556 n
O1 Nd1 O1 74.17(9) 2_455 . -2_555 n
O1 Nd1 O1 73.54(5) 2_455 . 101_455 n
O1 Nd1 O1 81.18(10) 2_455 . 104_333 n
O1 Nd1 O1 125.22(6) 2_455 . -103_445 n
O1 Nd1 O1 69.74(5) 2_455 . -104_445 n
O1 Nd1 O1 69.74(5) 3_555 . -1_556 n
O1 Nd1 O1 99.568(35) 3_555 . -2_555 n
O1 Nd1 O1 131.88(9) 3_555 . 101_455 n
O1 Nd1 O1 73.54(5) 3_555 . 104_333 n
O1 Nd1 O1 74.17(9) 3_555 . -103_445 n
O1 Nd1 O1 99.568(35) 3_555 . -104_445 n
O1 Nd1 O1 154.50(8) -1_556 . -2_555 n
O1 Nd1 O1 74.17(9) -1_556 . 101_455 n
O1 Nd1 O1 125.22(6) -1_556 . 104_333 n
O1 Nd1 O1 81.18(10) -1_556 . -103_445 n
O1 Nd1 O1 73.54(5) -1_556 . -104_445 n
O1 Nd1 O1 99.568(35) -2_555 . 101_455 n
O1 Nd1 O1 69.74(5) -2_555 . 104_333 n
O1 Nd1 O1 73.54(5) -2_555 . -103_445 n
O1 Nd1 O1 131.88(9) -2_555 . -104_445 n
O1 Nd1 O1 154.50(8) 101_455 . 104_333 n
O1 Nd1 O1 69.74(5) 101_455 . -103_445 n
O1 Nd1 O1 99.568(35) 101_455 . -104_445 n
O1 Nd1 O1 125.22(6) 104_333 . -103_445 n
O1 Nd1 O1 74.17(9) 104_333 . -104_445 n
O1 Nd1 O1 154.50(8) -103_445 . -104_445 n
Nb1 O1 Nd1 120.78(9) 1_555 . 3_554 n
Nb1 O1 Nd1 128.41(9) 1_555 . 4_444 n
Nd1 O1 Nd1 105.83(9) 3_554 . 4_444 n
loop_
_geom_bond_atom_site_label_1
_geom_bond_atom_site_label_2
_geom_bond_distance
_geom_bond_site_symmetry_1
_geom_bond_site_symmetry_2
_geom_bond_publ_flag
Nb1 Nb1 3.91921(13) . 2_455 n
Nb1 Nb1 3.91921(13) . 2_555 n
Nb1 Nb1 3.91921(13) . 4_444 n
Nb1 Nb1 3.91921(13) . 4_454 n
Nb1 Nd1 3.91921(13) . 2_454 n
Nb1 Nd1 3.91921(13) . 2_554 n
Nb1 Nd1 3.77581(15) . 3_454 n
Nb1 Nd1 3.77581(15) . 3_464 n
Nb1 Nd1 3.77581(15) . 3_554 n
Nb1 Nd1 3.77581(15) . 3_564 n
Nb1 Nd1 3.91921(13) . 4_444 n
Nb1 Nd1 3.91921(13) . 4_454 n
Nb1 O1 1.8810(21) . 1_555 n
Nb1 O1 2.9113(20) . 4_454 n
Nb1 O1 2.9113(20) . -3_455 n
Nb1 O1 1.8810(21) . -4_555 n
Nb1 O1 2.9113(20) . 102_544 n
Nb1 O1 1.8810(21) . 103_555 n
Nb1 O1 2.9113(20) . -101_444 n
Nb1 O1 1.8810(21) . -102_344 n
Nd1 Nb1 3.91921(13) . 2_455 n
Nd1 Nb1 3.91921(13) . 2_555 n
Nd1 Nb1 3.77581(15) . 3_455 n
Nd1 Nb1 3.77581(15) . 3_465 n
Nd1 Nb1 3.77581(15) . 3_555 n
Nd1 Nb1 3.77581(15) . 3_565 n
Nd1 Nb1 3.91921(13) . 4_445 n
Nd1 Nb1 3.91921(13) . 4_455 n
Nd1 Nd1 3.91921(13) . 2_455 n
Nd1 Nd1 3.91921(13) . 2_555 n
Nd1 Nd1 3.91921(13) . 4_444 n
Nd1 Nd1 3.91921(13) . 4_454 n
Nd1 O1 2.4628(21) . 2_455 n
Nd1 O1 2.4499(21) . 3_555 n
Nd1 O1 2.4628(21) . -1_556 n
Nd1 O1 2.4499(21) . -2_555 n
Nd1 O1 2.4499(21) . 101_455 n
Nd1 O1 2.4628(21) . 104_555 n
Nd1 O1 2.4628(21) . -103_445 n
Nd1 O1 2.4499(21) . -104_334 n
O1 Nb1 1.8810(21) . 1_555 n
O1 Nb1 2.9113(20) . 2_555 n
O1 Nd1 2.4499(21) . 3_554 n
O1 Nd1 2.4628(21) . 4_444 n
loop_
_pd_meas_counts_total
_pd_proc_ls_weight
_pd_proc_intensity_bkg_calc
_pd_calc_intensity_total
564.9 0.001765 612.96759 613.22308
604.9 0.001652 612.95538 613.18744
604.1 0.001652 612.93890 613.15051
597.5 0.001680 612.91833 613.11206
624.8 0.001600 612.89380 613.07184
597.9 0.001666 612.86554 613.02966
622.3 0.001613 612.83362 612.98547
590.4 0.001694 612.79828 612.93909
595.6 0.001680 612.75958 612.89063
606.6 0.001652 612.71783 612.84003
639.8 0.001562 612.67303 612.78723
612.5 0.001639 612.62543 612.73236
596.5 0.001680 612.57513 612.67560
622.7 0.001600 612.52234 612.61676
575.5 0.001736 612.46716 612.55609
576.6 0.001736 612.40967 612.49359
609.1 0.001639 612.35010 612.42944
604.9 0.001652 612.28851 612.36365
601.7 0.001666 612.22516 612.29633
595.8 0.001680 612.16003 612.22766
608.4 0.001639 612.09332 612.15765
621.0 0.001613 612.02521 612.08643
603.1 0.001652 611.95575 612.01410
608.4 0.001639 611.88507 611.94073
633.0 0.001575 611.81329 611.86639
606.6 0.001652 611.74060 611.79138
627.3 0.001600 611.66699 611.71564
590.1 0.001694 611.59271 611.63928
620.5 0.001613 611.51776 611.56238
632.6 0.001575 611.44232 611.48511
661.4 0.001514 611.36646 611.40753
635.9 0.001575 611.29028 611.32977
656.5 0.001526 611.21387 611.25189
658.5 0.001514 611.13745 611.17407
624.2 0.001600 611.06097 611.09625
614.1 0.001626 610.98462 611.01862
616.8 0.001626 610.90845 610.94122
624.4 0.001600 610.83258 610.86420
634.3 0.001575 610.75708 610.78766
591.4 0.001694 610.68207 610.71161
616.4 0.001626 610.60760 610.63617
631.6 0.001587 610.53381 610.56140
599.8 0.001666 610.46069 610.48749
618.9 0.001613 610.38843 610.38824
650.1 0.001538 610.31708 610.31683
588.0 0.001708 610.24664 610.24646
621.9 0.001613 610.17731 610.17706
613.4 0.001626 610.10907 610.10889
603.5 0.001652 610.04199 610.04181
620.1 0.001613 609.97626 609.97607
594.1 0.001680 609.91180 609.91168
577.8 0.001736 609.84882 609.84863
579.7 0.001722 609.78729 609.78711
606.4 0.001652 609.72729 609.72717
599.5 0.001666 609.66895 609.66876
619.9 0.001613 609.61218 609.61206
601.6 0.001666 609.55725 609.55707
614.7 0.001626 609.50403 609.50391
630.1 0.001587 609.45270 609.45258
621.6 0.001613 609.40326 609.40314
598.6 0.001666 609.35577 609.35565
556.8 0.001795 609.31030 609.31018
565.6 0.001765 609.26691 609.26678
616.7 0.001626 609.22559 609.22546
655.7 0.001526 609.18646 609.18634
634.2 0.001575 609.14954 609.14941
637.4 0.001575 609.11487 609.11481
592.8 0.001694 609.08252 609.08240
620.8 0.001613 609.05249 609.05243
593.6 0.001680 609.02484 609.02478
613.1 0.001626 608.99963 608.99957
596.9 0.001680 608.97693 608.97687
590.8 0.001694 608.95667 608.95660
621.3 0.001613 608.93903 608.93896
607.8 0.001639 608.92389 608.92383
599.6 0.001666 608.91138 608.91132
616.6 0.001626 608.90155 608.90149
603.1 0.001652 608.89435 608.89429
592.9 0.001680 608.88989 608.88983
627.3 0.001600 608.88818 611.57062
631.0 0.001587 608.88922 611.66150
588.4 0.001694 608.89307 611.75977
630.6 0.001587 608.89972 611.86572
650.6 0.001538 608.90918 611.97986
627.1 0.001600 608.92157 612.10242
623.6 0.001600 608.93683 612.35242
604.8 0.001652 608.95496 612.49725
563.6 0.001780 608.97607 612.65228
612.3 0.001639 609.00012 612.81787
597.4 0.001680 609.02716 612.99481
620.8 0.001613 609.05719 613.18378
598.5 0.001666 609.09021 613.38550
641.7 0.001562 609.12628 613.60077
636.7 0.001575 609.16534 613.83051
620.4 0.001613 609.20746 614.07581
614.4 0.001626 609.25269 614.33765
635.2 0.001575 609.30096 614.61743
619.5 0.001613 609.35229 614.91644
649.9 0.001538 609.40674 615.23627
597.5 0.001680 609.46436 615.57861
645.0 0.001550 609.52502 615.94550
630.5 0.001587 609.58881 616.33911
647.8 0.001538 609.65570 616.76190
653.2 0.001526 609.72577 617.21674
617.1 0.001626 609.79895 617.70679
648.8 0.001538 609.87531 618.23584
643.3 0.001550 609.95477 618.80798
624.1 0.001600 610.03741 619.42816
609.8 0.001639 610.12317 620.10199
654.6 0.001526 610.21210 620.83588
663.9 0.001502 610.30420 621.63763
629.4 0.001587 610.39941 622.51599
639.9 0.001562 610.49774 623.48157
620.0 0.001613 610.59930 624.54681
648.8 0.001538 610.70392 625.72650
664.6 0.001502 610.81177 627.03864
639.5 0.001562 610.92267 628.50464
617.3 0.001626 611.03674 630.15082
654.3 0.001526 611.15393 632.00946
649.0 0.001538 611.27423 634.12079
626.7 0.001600 611.39764 636.53632
657.6 0.001526 611.52417 639.32471
620.0 0.001613 611.65375 642.58557
641.3 0.001562 611.78644 646.48022
664.8 0.001502 611.92224 651.29950
665.6 0.001502 612.06110 657.60168
724.3 0.001382 612.20294 666.46838
723.6 0.001382 612.34790 679.92273
720.1 0.001392 612.49591 701.53729
733.4 0.001362 612.64691 737.20520
815.5 0.001223 612.80090 795.97754
891.2 0.001119 612.95795 890.76489
999.3 0.001001 613.11792 1038.52307
1187.6 0.000840 613.28088 1259.13147
1434.1 0.000696 613.44678 1572.06384
1890.8 0.000528 613.61560 1989.72266
2437.1 0.000410 613.78741 2507.60449
3118.1 0.0003212 613.96210 3093.46948
3707.2 0.0002696 614.13965 3680.73926
4118.2 0.0002426 614.32007 4172.66699
4291.2 0.0002331 614.50336 4461.41016
4227.6 0.0002367 614.68951 4462.47119
3898.8 0.0002568 614.87842 4158.94922
3507.3 0.0002853 615.07019 3624.72241
2918.0 0.0003429 615.26471 2988.74243
2329.4 0.000429 615.46204 2372.47974
1797.7 0.000556 615.66205 1854.14221
1439.2 0.000696 615.86481 1462.80786
1154.6 0.000865 616.07025 1189.81409
931.5 0.001075 616.27838 1007.97137
873.9 0.001141 616.48914 888.44672
810.9 0.001231 616.70258 808.98212
766.4 0.001303 616.91858 755.10876
744.0 0.001342 617.13721 718.26373
720.2 0.001392 617.35840 693.28497
723.1 0.001382 617.58215 676.63904
725.7 0.001382 617.80841 665.64319
687.0 0.001457 618.03717 658.27496
657.9 0.001526 618.26837 653.12762
692.0 0.001446 618.50208 649.31689
678.6 0.001468 618.73816 646.33411
662.3 0.001514 618.97662 643.90204
666.1 0.001502 619.21753 641.86926
654.2 0.001526 619.46075 640.14697
641.6 0.001562 619.70630 638.67731
614.8 0.001626 619.95410 637.41803
677.2 0.001479 620.20422 636.33691
643.2 0.001550 620.45660 635.40790
608.1 0.001639 620.71118 634.60968
618.3 0.001613 620.96796 633.92511
636.9 0.001575 621.22687 633.35596
627.9 0.001587 621.48798 632.85950
642.6 0.001562 621.75116 632.44257
652.2 0.001538 622.01642 632.10022
624.5 0.001600 622.28375 631.83221
645.1 0.001550 622.55310 631.64557
648.3 0.001538 622.82440 631.55774
653.8 0.001526 623.09778 631.60010
614.9 0.001626 623.37299 631.82086
661.1 0.001514 623.65021 632.28387
684.0 0.001457 623.92926 633.05988
663.2 0.001502 624.21021 634.20508
634.5 0.001575 624.49292 635.72614
603.3 0.001652 624.77747 637.53912
647.8 0.001538 625.06384 639.44165
650.8 0.001538 625.35187 641.11786
655.5 0.001526 625.64166 642.19843
636.4 0.001575 625.93311 642.37427
631.8 0.001587 626.22626 641.55396
630.9 0.001587 626.52100 639.96069
617.6 0.001613 626.81732 638.02289
616.7 0.001626 627.11523 636.15521
598.5 0.001666 627.41467 634.63165
633.2 0.001575 627.71558 633.56006
627.7 0.001587 628.01801 632.91742
623.6 0.001600 628.32190 629.28027
615.9 0.001626 628.62714 629.31409
645.2 0.001550 628.93378 629.47607
618.6 0.001613 629.24182 629.70612
613.0 0.001626 629.55115 629.97058
626.2 0.001600 629.86182 630.25281
607.1 0.001652 630.17371 630.54480
598.9 0.001666 630.48688 630.69574
599.8 0.001666 630.80121 631.00543
614.0 0.001626 631.11670 631.31958
633.5 0.001575 631.43335 631.63818
614.1 0.001626 631.75116 631.96100
613.9 0.001626 632.07001 632.28833
592.2 0.001694 632.38995 632.62048
601.2 0.001666 632.71088 632.95831
631.3 0.001587 633.03278 633.30341
652.3 0.001538 633.35571 633.65936
636.2 0.001575 633.67950 634.03345
606.2 0.001652 634.00427 634.44031
669.2 0.001491 634.32990 634.90784
612.8 0.001626 634.65631 635.48407
633.2 0.001575 634.98358 636.24615
613.6 0.001626 635.31165 637.30408
575.3 0.001736 635.64044 638.79456
569.1 0.001751 635.96997 640.85236
625.4 0.001600 636.30017 643.55365
657.8 0.001526 636.63110 646.83588
673.3 0.001491 636.96259 650.42670
629.6 0.001587 637.29474 653.82556
688.5 0.001457 637.62744 656.37732
704.9 0.001413 637.96069 657.45477
613.0 0.001626 638.29449 656.74023
612.3 0.001639 638.62872 654.70258
620.8 0.001613 638.96344 651.61047
588.1 0.001694 639.29858 648.46265
651.4 0.001538 639.63416 645.81525
619.2 0.001613 639.97009 643.92065
625.6 0.001600 640.30634 642.77557
620.5 0.001613 640.64294 642.22668
626.2 0.001600 640.97980 642.07922
663.3 0.001502 641.31696 642.16772
626.7 0.001600 641.65430 642.38049
620.6 0.001613 641.99182 642.65393
611.7 0.001639 642.32959 642.95660
619.0 0.001613 642.66748 643.27435
621.2 0.001613 643.00549 643.60126
669.3 0.001491 643.34357 643.93488
638.4 0.001562 643.68170 644.26440
622.6 0.001600 644.01990 644.60828
642.9 0.001550 644.35809 644.95630
667.3 0.001502 644.69629 645.30817
645.3 0.001550 645.03442 645.66376
647.3 0.001550 645.37250 646.02301
619.4 0.001613 645.71045 646.38593
619.0 0.001613 646.04828 648.21582
647.7 0.001538 646.38593 648.64124
641.2 0.001562 646.72345 649.07404
688.4 0.001457 647.06073 649.51495
640.1 0.001562 647.39783 649.96466
685.7 0.001457 647.73462 650.42407
624.6 0.001600 648.07117 650.89429
625.9 0.001600 648.40735 651.37659
649.1 0.001538 648.74329 651.87238
620.4 0.001613 649.07880 652.38367
643.0 0.001550 649.41394 652.91266
662.0 0.001514 649.74866 653.46161
672.7 0.001491 650.08301 654.03424
637.5 0.001575 650.41681 654.63391
647.8 0.001538 650.75018 655.26605
640.5 0.001562 651.08307 657.72626
636.0 0.001575 651.41534 658.50977
679.7 0.001468 651.74713 659.35480
657.2 0.001526 652.07837 660.27856
642.6 0.001550 652.40894 661.31128
692.7 0.001446 652.73889 662.51331
656.4 0.001526 653.06824 664.01080
646.5 0.001550 653.39691 666.06427
645.6 0.001550 653.72485 669.18164
677.0 0.001479 654.05212 674.27496
702.9 0.001424 654.37866 682.81738
647.5 0.0 654.70441 .
729.1 0.0 655.02936 .
754.6 0.0 655.35352 .
801.8 0.0 655.67688 .
864.8 0.0 655.99939 .
934.8 0.0 656.32098 .
995.1 0.0 656.64172 .
1095.5 0.0 656.96161 .
1250.6 0.0 657.28052 .
1299.2 0.0 657.59845 .
1359.0 0.0 657.91547 .
1386.3 0.0 658.23145 .
1358.3 0.0 658.54645 .
1192.4 0.0 658.86041 .
1101.1 0.0 659.17334 .
990.1 0.0 659.48517 .
921.9 0.0 659.79590 .
863.0 0.0 660.10559 .
775.7 0.0 660.41412 .
746.5 0.0 660.72150 .
765.9 0.001303 661.02777 759.18701
791.7 0.001266 661.33282 811.22723
875.1 0.001141 661.63672 900.71991
1076.4 0.000930 661.93933 1044.49133
1272.4 0.000785 662.24078 1256.35144
1644.2 0.000610 662.54095 1537.57837
2081.0 0.000481 662.83990 1866.51013
2378.1 0.000420 663.13751 2193.37305
2533.0 0.000395 663.43390 2446.44824
2543.3 0.000394 663.72894 2552.21851
2378.2 0.000420 664.02264 2469.15186
2142.7 0.000466 664.31500 2220.21411
1967.2 0.000507 664.60602 1884.03235
1613.3 0.000619 664.89569 1547.66736
1342.7 0.000747 665.18390 1273.52954
1136.4 0.000881 665.47076 1093.05481
1020.3 0.000983 665.75623 1014.96869
983.9 0.001014 666.04022 1038.88745
1147.2 0.000870 666.32275 1165.54553
1435.6 0.000696 666.60388 1397.20508
1851.8 0.000541 666.88348 1727.47070
2286.0 0.000438 667.16162 2126.31274
2720.2 0.000367 667.43829 2530.49414
3020.3 0.0003306 667.71344 2848.80566
2894.3 0.0003455 667.98700 2986.40137
2790.4 0.000359 668.25909 2886.60376
2515.7 0.000397 668.52960 2574.91602
2106.2 0.000475 668.79858 2148.58569
1672.4 0.000598 669.06592 1715.73413
1259.2 0.000793 669.33173 1350.99548
1012.6 0.000989 669.59595 1085.34656
853.9 0.001173 669.85852 914.64886
769.7 0.001303 670.11951 816.09222
759.0 0.001322 670.37885 763.59290
710.3 0.001403 670.63660 736.61182
712.9 0.001403 670.89264 722.28534
708.8 0.001413 671.14703 713.83722
676.4 0.001479 671.39978 708.14569
680.7 0.001468 671.65082 703.89093
689.7 0.001446 671.90021 700.51843
719.7 0.001392 672.14783 697.76862
707.2 0.001413 672.39380 695.49426
678.9 0.001468 672.63806 693.37061
710.0 0.001413 672.88055 691.78650
696.7 0.001435 673.12134 690.45184
696.0 0.001435 673.36041 689.32373
651.8 0.001538 673.59766 688.36841
668.0 0.001502 673.83319 687.55884
702.1 0.001424 674.06702 686.87329
733.5 0.001362 674.29901 686.29437
685.7 0.001457 674.52924 685.80774
647.8 0.001538 674.75769 685.40198
657.8 0.001526 674.98431 685.06744
684.5 0.001457 675.20917 684.79688
685.5 0.001457 675.43219 685.40790
694.1 0.001446 675.65344 685.27856
681.0 0.001468 675.87286 685.20038
664.3 0.001502 676.09045 685.17084
685.1 0.001457 676.30627 685.18860
681.5 0.001468 676.52020 685.25391
687.0 0.001457 676.73230 685.36761
696.6 0.001435 676.94257 685.53217
692.4 0.001446 677.15100 685.75232
680.2 0.001468 677.35754 686.03473
641.8 0.001562 677.56226 684.93549
684.0 0.001457 677.76514 685.43121
690.7 0.001446 677.96613 686.04608
679.6 0.001468 678.16528 686.84863
714.8 0.001403 678.36255 687.99396
697.0 0.001435 678.55792 689.82452
709.1 0.001413 678.75146 693.04657
707.9 0.001413 678.94312 698.96802
699.9 0.001424 679.13287 709.70142
770.8 0.001294 679.32080 728.09363
791.2 0.001266 679.50677 757.04144
855.2 0.001173 679.69092 797.96631
938.2 0.001068 679.87311 848.75092
974.2 0.001027 680.05347 902.23444
962.1 0.001041 680.23193 946.62476
971.0 0.001027 680.40851 966.88330
1017.8 0.000983 680.58319 957.96320
988.3 0.001014 680.75598 920.44678
917.6 0.001089 680.92682 870.27411
868.4 0.001149 681.09583 815.98645
785.2 0.001276 681.26294 770.61285
765.7 0.001303 681.42816 738.18939
741.0 0.001352 681.59149 718.01398
716.5 0.001392 681.75293 706.97369
705.9 0.001413 681.91241 701.64746
712.1 0.001403 682.07007 699.43945
714.5 0.001403 682.22583 698.79199
739.0 0.001352 682.37970 698.92841
700.2 0.001424 682.53168 699.52216
760.4 0.001313 682.68176 700.46417
707.0 0.001413 682.83002 701.74396
745.4 0.001342 682.97632 703.41107
733.4 0.001362 683.12079 705.59167
745.6 0.001342 683.26337 708.57770
705.6 0.001413 683.40405 713.05145
719.6 0.001392 683.54291 720.54822
718.4 0.001392 683.67987 734.24817
750.4 0.001332 683.81494 760.00647
779.6 0.001285 683.94818 807.08337
928.9 0.001075 684.07953 887.40936
1046.0 0.000959 684.20905 1011.90295
1171.5 0.000855 684.33673 1183.27563
1445.0 0.000693 684.46252 1387.49658
1580.0 0.000634 684.58649 1589.30249
1693.6 0.000589 684.70862 1737.26697
1764.8 0.000567 684.82892 1782.67761
1692.7 0.000592 684.94739 1701.93738
1554.9 0.000644 685.06396 1525.20410
1344.0 0.000742 685.17877 1311.02356
1141.5 0.000875 685.29175 1111.77405
946.3 0.001054 685.40295 957.00861
839.4 0.001189 685.51233 853.49323
808.2 0.001240 685.61987 792.95123
767.1 0.001303 685.72565 761.67725
741.8 0.001352 685.82959 747.40692
724.6 0.001382 685.93182 741.95654
738.1 0.001352 686.03223 740.91553
767.8 0.001303 686.13086 742.31812
776.0 0.001285 686.22772 745.48706
787.2 0.001266 686.32281 750.39404
777.1 0.001285 686.41620 757.50500
778.0 0.001285 686.50781 768.10266
804.4 0.001240 686.59766 785.30280
781.9 0.001276 686.68579 816.18384
848.6 0.001181 686.77216 875.31573
879.8 0.001134 686.85687 988.97626
1134.2 0.000881 686.93982 1197.14075
1465.5 0.000682 687.02112 1547.70862
2263.9 0.000441 687.10065 2077.25122
3104.4 0.0003223 687.17853 2778.65039
3932.7 0.0002544 687.25476 3568.91040
4456.9 0.0002241 687.32928 4282.83643
4513.1 0.0002214 687.40216 4709.24170
4437.8 0.0002255 687.47333 4681.95361
4113.5 0.0002434 687.54291 4197.19238
3557.3 0.0002815 687.61078 3433.99316
2796.0 0.000357 687.67706 2623.51074
2044.7 0.000489 687.74176 1932.40125
1443.3 0.000693 687.80481 1432.32593
1067.5 0.000935 687.86621 1117.44092
924.2 0.001082 687.92609 941.24695
832.8 0.001197 687.98431 851.01599
824.0 0.001214 688.04102 806.60535
822.2 0.001214 688.09613 784.05768
784.5 0.001276 688.14966 771.47815
775.7 0.001285 688.20166 763.74817
779.3 0.001285 688.25214 758.87585
781.5 0.001276 688.30109 756.15369
767.7 0.001303 688.34851 755.46667
788.2 0.001266 688.39441 757.24304
791.2 0.001266 688.43878 762.91101
823.1 0.001214 688.48169 776.00616
805.0 0.001240 688.52313 804.06482
832.5 0.001197 688.56311 860.91644
911.1 0.001096 688.60162 967.73242
1011.6 0.000989 688.63867 1149.72717
1254.7 0.000798 688.67432 1425.40942
1699.6 0.000589 688.70850 1788.87537
2187.8 0.000457 688.74133 2193.01636
2534.3 0.000395 688.77271 2547.20190
2750.6 0.000364 688.80267 2739.11890
2698.1 0.000371 688.83130 2690.39160
2504.5 0.000400 688.85852 2413.34229
2038.9 0.000489 688.88440 2011.46729
1688.5 0.000592 688.90894 1602.89038
1295.4 0.000772 688.93213 1266.02637
999.7 0.001001 688.95398 1029.62415
856.4 0.001165 688.97455 884.79291
853.2 0.001173 688.99384 805.46777
803.6 0.001249 689.01178 765.10663
766.5 0.001303 689.02844 744.75507
714.3 0.001403 689.04388 733.65674
710.2 0.001413 689.05804 726.68298
707.1 0.001413 689.07098 721.67560
696.6 0.001435 689.08270 717.77020
715.6 0.001392 689.09314 714.59607
691.7 0.001446 689.10242 711.96057
695.4 0.001435 689.11053 709.74261
725.7 0.001382 689.11743 707.85608
709.0 0.001413 689.12311 706.23645
706.0 0.001413 689.12769 704.83459
711.7 0.001403 689.13116 703.61182
732.9 0.001362 689.13342 702.53821
711.3 0.001403 689.13464 701.58954
691.1 0.001446 689.13470 700.74658
690.3 0.001446 689.13367 699.99353
706.4 0.001413 689.13159 699.31769
705.3 0.001413 689.12842 695.63373
696.1 0.001435 689.12421 695.19147
673.9 0.001479 689.11896 694.79413
692.3 0.001446 689.11267 694.43585
684.3 0.001457 689.10535 694.11182
687.2 0.001457 689.09705 693.81812
715.9 0.001392 689.08777 693.55145
664.1 0.001502 689.07751 694.15283
684.0 0.001457 689.06628 693.96466
699.9 0.001424 689.05408 693.79980
708.9 0.001413 689.04095 693.65881
685.0 0.001457 689.02692 693.54315
719.0 0.001392 689.01196 693.45496
696.6 0.001435 688.99609 693.39514
678.9 0.001468 688.97937 693.36108
667.0 0.001502 688.96179 693.34515
699.9 0.001424 688.94336 693.33563
685.6 0.001457 688.92401 693.32074
690.6 0.001446 688.90387 693.29736
679.7 0.001468 688.88293 693.27533
694.0 0.001446 688.86121 693.27246
717.4 0.001392 688.83868 693.30609
720.3 0.001392 688.81537 693.39288
663.8 0.001502 688.79126 693.55664
653.1 0.001526 688.76648 693.85114
669.5 0.001491 688.74091 694.40454
680.9 0.001468 688.71460 695.49475
686.0 0.001457 688.68762 697.63611
674.5 0.001479 688.65997 700.07422
702.1 0.001424 688.63159 706.83002
693.8 0.001446 688.60254 716.86902
768.8 0.001303 688.57288 729.73480
764.5 0.001313 688.54254 743.39435
787.6 0.001266 688.51160 754.32050
751.7 0.001332 688.48004 758.63062
741.4 0.001352 688.44788 754.37518
783.6 0.001276 688.41516 743.57941
776.9 0.001285 688.38184 730.00201
694.9 0.001435 688.34796 717.52905
698.5 0.001435 688.31354 708.14478
695.4 0.001435 688.27856 702.20148
704.4 0.001424 688.24310 699.04370
719.9 0.001392 688.20715 697.72107
704.9 0.001413 688.17072 697.44989
664.4 0.001502 688.13379 697.75134
712.6 0.001403 688.09637 698.39856
739.2 0.001352 688.05853 699.31708
714.5 0.001403 688.02026 700.51068
691.1 0.001446 687.98157 702.03040
684.2 0.001457 687.94244 703.97650
707.3 0.001413 687.90295 706.55127
720.9 0.001392 687.86304 710.22064
716.5 0.001392 687.82281 716.12598
705.7 0.001413 687.78223 726.94873
713.9 0.001403 687.74127 748.32361
780.4 0.001285 687.70001 790.33490
893.2 0.001119 687.65839 867.55127
1034.6 0.000964 687.61652 996.77856
1259.3 0.000793 687.57434 1181.32190
1578.2 0.000634 687.53186 1408.21997
1674.4 0.000598 687.48920 1634.10364
1744.3 0.000572 687.44623 1791.84546
1821.7 0.000548 687.40302 1818.48071
1744.7 0.000572 687.35962 1698.87549
1593.1 0.000628 687.31598 1483.54309
1324.2 0.000755 687.27216 1246.79187
1060.1 0.000941 687.22815 1043.54797
873.1 0.001149 687.18402 897.59033
786.4 0.001276 687.13971 807.25183
766.0 0.001303 687.09521 757.84332
695.4 0.001435 687.05060 733.07825
714.5 0.001403 687.00592 720.98163
727.5 0.001372 686.96112 714.70770
709.0 0.001413 686.91620 711.01379
757.8 0.001322 686.87122 708.55847
758.9 0.001322 686.82617 706.82074
702.9 0.001424 686.78107 705.58868
725.0 0.001382 686.73590 704.76489
740.4 0.001352 686.69073 704.30420
722.6 0.001382 686.64551 704.20599
717.7 0.001392 686.60034 704.54419
703.9 0.001424 686.55518 705.56097
719.0 0.001392 686.51001 707.87671
743.5 0.001342 686.46490 712.84259
746.3 0.001342 686.41980 723.19843
741.7 0.001352 686.37476 742.05475
770.1 0.001303 686.32983 773.51709
821.7 0.001214 686.28497 819.31433
902.5 0.001111 686.24017 875.90186
925.3 0.001082 686.19556 932.31799
943.4 0.001061 686.15100 971.94586
925.4 0.001082 686.10657 978.61810
926.6 0.001082 686.06232 949.05145
917.8 0.001089 686.01819 896.45917
869.1 0.001149 685.97424 839.52521
837.6 0.001197 685.93048 791.72290
809.4 0.001240 685.88690 758.67731
743.7 0.001342 685.84351 739.78015
742.8 0.001342 685.80029 731.39276
725.3 0.001382 685.75739 729.69928
781.2 0.001285 685.71466 732.21350
783.5 0.001276 685.67218 738.22058
789.6 0.001266 685.63000 749.18951
777.9 0.001285 685.58807 770.11121
806.2 0.001240 685.54639 812.17163
924.4 0.001082 685.50500 895.78503
1077.1 0.000930 685.46393 1050.64502
1377.8 0.000727 685.42322 1307.61963
1799.7 0.000556 685.38275 1679.59229
2265.4 0.000441 685.34265 2136.54639
2610.4 0.000383 685.30292 2590.09375
2894.2 0.0003455 685.26349 2906.79663
3119.4 0.0003200 685.22449 2966.16333
2967.2 0.0003367 685.18579 2751.42334
2586.1 0.000386 685.14752 2366.08887
1982.4 0.000505 685.10968 1939.11719
1514.9 0.000661 685.07220 1556.49988
1123.7 0.000891 685.03516 1256.38953
929.3 0.001075 684.99854 1046.01660
804.6 0.001240 684.96234 909.85077
740.2 0.001352 684.92657 826.90552
777.3 0.001285 684.89130 778.65826
759.6 0.001313 684.85645 751.45593
728.8 0.001372 684.82208 736.17255
745.9 0.001342 684.78827 727.25085
728.3 0.001372 684.75488 721.65137
733.4 0.001362 684.72198 717.88861
769.1 0.001303 684.68964 715.31738
707.9 0.001413 684.65784 713.73950
699.2 0.001435 684.62653 713.30780
672.3 0.001491 684.59576 714.70728
720.3 0.001392 684.56555 719.59229
734.1 0.001362 684.53589 731.11682
753.7 0.001322 684.50677 754.02795
780.0 0.001285 684.47827 793.45404
836.8 0.001197 684.45032 851.82336
936.3 0.001068 684.42297 924.71863
991.9 0.001008 684.39624 998.17468
1018.0 0.000983 684.37006 1050.75989
1015.9 0.000983 684.34454 1063.42786
1009.0 0.000989 684.31964 1035.32544
995.6 0.001001 684.29541 986.92188
905.9 0.001104 684.27179 942.12921
913.5 0.001096 684.24878 913.17682
867.2 0.001157 684.22644 897.56226
850.9 0.001173 684.20483 883.14990
846.0 0.001181 684.18384 858.74634
842.5 0.001189 684.16351 824.15869
790.2 0.001266 684.14386 786.56671
791.8 0.001266 684.12494 753.53400
727.2 0.001372 684.10669 729.09021
700.3 0.001424 684.08917 713.50085
685.1 0.001457 684.07239 704.67535
667.5 0.001502 684.05627 699.93134
686.2 0.001457 684.04089 697.16125
693.0 0.001446 684.02625 695.19708
712.6 0.001403 684.01239 693.60175
709.4 0.001413 683.99921 692.27618
693.0 0.001446 683.98682 691.20813
665.2 0.001502 683.97522 690.37567
676.3 0.001479 683.96436 690.15387
680.5 0.001468 683.95422 689.66327
656.7 0.001526 683.94495 689.26599
661.1 0.001514 683.93640 688.93256
664.7 0.001502 683.92865 688.83978
652.7 0.001538 683.92169 688.59552
687.7 0.001457 683.91553 686.75177
667.4 0.001502 683.91016 686.62177
695.6 0.001435 683.90564 686.51123
719.5 0.001392 683.90192 686.41809
651.3 0.001538 683.89899 686.14752
652.4 0.001538 683.89691 686.09045
669.9 0.001491 683.89569 686.04572
628.0 0.001587 683.89526 686.01245
646.3 0.001550 683.89569 685.98981
673.4 0.001479 683.89697 685.97748
688.6 0.001457 683.89911 685.97479
680.2 0.001468 683.90210 685.98175
689.9 0.001446 683.90588 685.99817
672.8 0.001491 683.91058 686.02386
710.3 0.001403 683.91614 686.05933
682.3 0.001468 683.92261 686.13770
686.6 0.001457 683.92993 686.19434
661.6 0.001514 683.93811 686.26166
710.6 0.001403 683.94714 686.34052
680.4 0.001468 683.95709 686.43152
660.3 0.001514 683.96796 686.53607
676.7 0.001479 683.97968 686.65521
645.3 0.001550 683.99231 686.79059
691.7 0.001446 684.00586 686.94403
709.1 0.001413 684.02026 687.11786
717.1 0.001392 684.03558 687.31488
692.1 0.001446 684.05182 687.53821
712.4 0.001403 684.06897 687.52454
641.8 0.001562 684.08704 687.82361
640.8 0.001562 684.10602 688.16400
660.3 0.001514 684.12592 688.55377
695.3 0.001435 684.14667 689.00256
711.7 0.001403 684.16840 689.52332
677.0 0.001479 684.19110 690.13245
655.4 0.001526 684.21466 690.73260
682.3 0.001468 684.23914 691.59375
707.2 0.001413 684.26459 692.63330
646.2 0.001550 684.29095 693.91370
657.1 0.001526 684.31824 695.69232
674.3 0.001479 684.34650 697.96094
665.2 0.001502 684.37567 701.52258
714.4 0.001403 684.40576 707.98126
709.7 0.001413 684.43677 720.73633
692.5 0.001446 684.46875 745.80774
771.2 0.001294 684.50171 791.50537
845.2 0.001181 684.53552 865.49896
949.3 0.001054 684.57031 968.85693
1115.8 0.000896 684.60608 1089.28210
1151.7 0.000870 684.64276 1198.02039
1176.8 0.000850 684.68036 1256.41455
1205.4 0.000831 684.71893 1237.58289
1160.7 0.000860 684.75842 1151.31848
1104.1 0.000907 684.79889 1036.61182
960.4 0.001041 684.84027 932.20465
869.4 0.001149 684.88263 862.64539
811.1 0.001231 684.92590 837.45691
816.3 0.001223 684.97009 854.31915
839.2 0.001189 685.01526 902.10608
910.0 0.001096 685.06134 962.17139
941.7 0.001061 685.10840 1009.91095
941.2 0.001061 685.15637 1021.91119
919.6 0.001089 685.20532 989.24060
885.1 0.001126 685.25513 926.34723
852.9 0.001173 685.30597 856.13733
786.4 0.001276 685.35767 795.64441
726.9 0.001372 685.41034 752.27057
721.2 0.001382 685.46393 725.56873
718.2 0.001392 685.51843 711.13184
639.0 0.001562 685.57391 704.18945
689.7 0.001446 685.63031 701.48206
724.3 0.001382 685.68756 701.55316
671.8 0.001491 685.74585 704.25189
679.5 0.001468 685.80499 709.97546
688.7 0.001457 685.86505 718.81219
692.9 0.001446 685.92603 729.73230
696.0 0.001435 685.98798 740.14771
652.5 0.001538 686.05078 746.32050
716.3 0.001392 686.11450 745.24506
735.0 0.001362 686.17914 737.25000
662.4 0.001514 686.24469 725.76563
696.1 0.001435 686.31116 714.42938
698.6 0.001435 686.37854 705.44934
676.4 0.001479 686.44678 699.46820
693.3 0.001446 686.51593 696.05646
673.3 0.001491 686.58594 694.38470
706.7 0.001413 686.65686 693.71240
648.6 0.001538 686.72870 693.56732
710.2 0.001413 686.80139 693.77808
660.7 0.001514 686.87494 694.14685
720.4 0.001392 686.94940 694.75763
700.2 0.001424 687.02472 695.76062
691.7 0.001446 687.10089 697.56757
689.1 0.001446 687.17792 701.13171
681.6 0.001468 687.25580 708.32233
693.0 0.001446 687.33459 722.09991
758.4 0.001322 687.41418 745.92841
809.9 0.001231 687.49463 781.94965
867.3 0.001149 687.57593 828.69482
938.4 0.001068 687.65808 877.07648
915.4 0.001089 687.74103 913.19421
932.1 0.001075 687.82483 922.00061
1001.4 0.001001 687.90948 898.98822
933.6 0.001068 687.99493 855.09589
863.3 0.001157 688.08118 806.83643
816.9 0.001223 688.16821 764.89667
738.2 0.001352 688.25610 735.44208
720.0 0.001392 688.34479 717.59991
713.2 0.001403 688.43427 708.24023
706.2 0.001413 688.52448 703.97601
721.6 0.001382 688.61554 702.38458
703.4 0.001424 688.70734 702.14539
730.2 0.001372 688.79993 702.73053
683.6 0.001468 688.89331 704.14557
697.8 0.001435 688.98743 706.95850
738.3 0.001352 689.08228 712.69440
734.0 0.001362 689.17792 724.51862
674.3 0.001479 689.27429 747.73859
743.1 0.001342 689.37140 789.11224
815.9 0.001223 689.46924 853.88342
907.0 0.001104 689.56781 940.71594
1012.8 0.000989 689.66711 1036.80310
1046.8 0.000953 689.76709 1116.61780
1137.8 0.000881 689.86780 1148.99597
1150.8 0.000870 689.96924 1118.23071
1026.9 0.000977 690.07135 1039.01294
940.9 0.001061 690.17413 942.80951
884.8 0.001134 690.27759 855.61975
783.3 0.001276 690.38171 790.52875
744.3 0.001342 690.48657 749.02399
716.6 0.001392 690.59204 725.85101
733.6 0.001362 690.69818 714.15784
680.8 0.001468 690.80493 708.54767
697.5 0.001435 690.91235 705.79907
712.6 0.001403 691.02039 704.33917
651.2 0.001538 691.12909 703.50659
674.7 0.001479 691.23834 703.04559
735.6 0.001362 691.34827 702.85748
724.4 0.001382 691.45880 702.90466
749.8 0.001332 691.56989 703.44574
723.3 0.001382 691.68158 704.00964
722.2 0.001382 691.79382 704.98212
708.9 0.001413 691.90668 706.69287
700.2 0.001424 692.02008 709.81879
714.4 0.001403 692.13409 715.49689
736.4 0.001362 692.24860 725.19489
771.2 0.001294 692.36365 740.10956
750.3 0.001332 692.47925 760.11536
774.6 0.001294 692.59534 782.73352
768.0 0.001303 692.71198 802.84314
812.3 0.001231 692.82916 814.17065
830.7 0.001206 692.94678 813.84442
827.2 0.001206 693.06494 806.90363
828.2 0.001206 693.18353 804.89795
857.2 0.001165 693.30267 821.14966
839.3 0.001189 693.42224 869.38513
948.7 0.001054 693.54230 959.12604
1069.3 0.000935 693.66278 1089.68567
1193.6 0.000840 693.78369 1244.15588
1370.7 0.000730 693.90503 1387.92517
1408.0 0.000711 694.02686 1477.80127
1466.0 0.000682 694.14905 1490.01904
1447.1 0.000693 694.27167 1446.17981
1412.4 0.000707 694.39465 1392.25610
1370.4 0.000730 694.51807 1356.93909
1323.9 0.000755 694.64185 1336.34570
1253.2 0.000798 694.76599 1301.73621
1257.3 0.000793 694.89050 1228.13367
1166.2 0.000860 695.01538 1120.44714
1092.2 0.000918 695.14063 1003.67584
965.2 0.001034 695.26617 900.78247
859.8 0.001165 695.39203 823.80847
819.3 0.001223 695.51825 773.80872
781.5 0.001276 695.64471 744.96301
736.9 0.001362 695.77155 729.64618
742.5 0.001352 695.89868 721.70605
765.1 0.001303 696.02606 718.26483
760.3 0.001313 696.15369 715.62579
767.4 0.001303 696.28162 714.39655
683.2 0.001468 696.40979 713.10956
745.2 0.001342 696.53815 712.16833
704.7 0.001424 696.66681 711.49884
705.9 0.001413 696.79572 711.05750
735.8 0.001362 696.92474 710.81775
748.0 0.001342 697.05408 710.47864
731.6 0.001372 697.18353 710.61633
724.7 0.001382 697.31323 710.93988
729.5 0.001372 697.44305 711.46558
766.2 0.001303 697.57306 712.22650
729.7 0.001372 697.70325 713.29083
754.9 0.001322 697.83356 714.81659
754.2 0.001322 697.96399 717.20154
753.2 0.001332 698.09460 721.41870
710.2 0.001403 698.22528 729.60309
746.1 0.001342 698.35608 745.72803
752.2 0.001332 698.48700 775.73175
816.1 0.001223 698.61798 826.03619
851.3 0.001173 698.74902 899.81226
953.3 0.001047 698.88019 992.01105
963.8 0.001041 699.01135 1085.80310
1006.7 0.000995 699.14264 1153.53711
1095.3 0.000913 699.27393 1165.97229
1100.9 0.000907 699.40521 1117.48047
1101.4 0.000907 699.53656 1031.24243
987.3 0.001014 699.66785 937.64233
902.0 0.001111 699.79919 858.28729
817.5 0.001223 699.93054 802.92877
774.7 0.001294 700.06183 772.29034
771.9 0.001294 700.19312 763.24524
770.2 0.001294 700.32434 773.30688
758.3 0.001322 700.45551 801.93286
855.3 0.001173 700.58661 848.42102
879.4 0.001134 700.71765 908.05243
948.3 0.001054 700.84863 969.38550
986.0 0.001014 700.97949 1013.86066
1028.6 0.000970 701.11023 1022.56110
1016.2 0.000983 701.24091 991.13892
986.5 0.001014 701.37140 934.40186
946.3 0.001054 701.50183 872.55426
898.2 0.001111 701.63208 819.23206
835.7 0.001197 701.76215 781.06219
826.2 0.001214 701.89209 757.98010
803.3 0.001249 702.02185 745.67249
730.4 0.001372 702.15143 741.02124
767.2 0.001303 702.28082 740.47992
775.5 0.001294 702.41003 742.33783
753.1 0.001332 702.53900 745.97278
810.7 0.001231 702.66772 751.62585
735.0 0.001362 702.79626 760.32587
792.1 0.001266 702.92450 776.16644
839.4 0.001189 703.05255 806.26184
841.1 0.001189 703.18030 864.27875
885.7 0.001126 703.30774 970.84705
1017.1 0.000983 703.43494 1149.79968
1263.8 0.000789 703.56183 1417.82397
1563.8 0.000641 703.68848 1769.28479
2009.3 0.000498 703.81476 2161.98242
2419.9 0.000413 703.94067 2511.94580
2636.9 0.000379 704.06628 2717.21191
2729.2 0.000367 704.19159 2720.31641
2611.1 0.000383 704.31653 2532.81104
2344.8 0.000427 704.44110 2208.36011
1966.5 0.000510 704.56525 1830.70374
1545.3 0.000647 704.68909 1480.31006
1221.5 0.000821 704.81250 1203.62524
1062.6 0.000941 704.93549 1011.42627
951.0 0.001054 705.05811 891.87183
854.7 0.001173 705.18030 824.20789
835.8 0.001197 705.30206 788.26117
828.6 0.001206 705.42334 769.63416
790.1 0.001266 705.54419 759.73145
799.6 0.001249 705.66461 754.28137
758.5 0.001322 705.78455 751.63788
805.2 0.001240 705.90393 751.80609
810.0 0.001231 706.02289 756.28766
782.0 0.001276 706.14136 768.41248
843.0 0.001189 706.25934 793.47723
890.0 0.001126 706.37677 837.69128
942.5 0.001061 706.49365 905.19446
1023.0 0.000977 706.60999 993.65472
1139.2 0.000875 706.72583 1090.49731
1169.8 0.000855 706.84106 1172.08813
1202.6 0.000831 706.95581 1209.34155
1267.5 0.000789 707.06989 1185.86072
1153.3 0.000865 707.18347 1113.94727
1077.6 0.000930 707.29639 1021.88861
1029.0 0.000970 707.40875 934.00952
957.7 0.001047 707.52045 863.66632
874.3 0.001141 707.63159 814.21558
786.7 0.001276 707.74207 783.06525
779.7 0.001285 707.85193 765.66736
806.9 0.001240 707.96112 758.38318
764.7 0.001303 708.06970 760.08112
804.6 0.001240 708.17755 772.64148
858.9 0.001165 708.28479 800.60730
895.1 0.001119 708.39130 849.65271
969.2 0.001034 708.49713 923.26599
1032.5 0.000970 708.60229 1019.44720
1086.3 0.000918 708.70673 1126.04407
1239.3 0.000807 708.81042 1220.61328
1272.9 0.000785 708.91345 1275.74988
1320.0 0.000759 709.01569 1276.16174
1356.2 0.000738 709.11719 1229.13904
1369.2 0.000730 709.21796 1151.36646
1181.3 0.000845 709.31799 1058.67493
1039.7 0.000964 709.41724 966.85266
918.2 0.001089 709.51569 888.41113
908.2 0.001104 709.61340 828.87006
854.9 0.001173 709.71027 787.95844
796.2 0.001257 709.80640 762.44586
762.3 0.001313 709.90167 747.66913
703.6 0.001424 709.99615 739.82648
706.3 0.001413 710.08984 736.07288
720.8 0.001392 710.18268 734.80737
752.2 0.001332 710.27466 735.57257
767.5 0.001303 710.36578 739.00952
763.9 0.001313 710.45605 746.94019
765.5 0.001303 710.54553 762.34760
808.6 0.001240 710.63409 788.77203
800.9 0.001249 710.72180 827.83850
851.9 0.001173 710.80859 880.68256
913.1 0.001096 710.89453 940.43146
988.4 0.001014 710.97955 994.90063
1013.9 0.000989 711.06366 1030.33728
1030.4 0.000970 711.14685 1036.33521
1006.7 0.000995 711.22919 1017.52399
939.1 0.001068 711.31055 987.86212
913.1 0.001096 711.39099 958.45892
907.7 0.001104 711.47046 932.33264
901.6 0.001111 711.54901 905.86932
833.0 0.001197 711.62665 875.35382
831.9 0.001206 711.70331 842.08942
844.0 0.001181 711.77899 810.31677
766.1 0.001303 711.85370 783.87500
777.1 0.001285 711.92743 765.09497
785.4 0.001276 712.00018 754.95605
755.8 0.001322 712.07196 754.08099
758.1 0.001322 712.14270 764.03571
786.3 0.001276 712.21246 787.98608
841.0 0.001189 712.28125 829.85168
908.6 0.001104 712.34900 891.71198
996.2 0.001001 712.41571 970.28595
1113.9 0.000896 712.48145 1054.18665
1201.4 0.000831 712.54608 1123.57837
1181.8 0.000845 712.60974 1154.45349
1109.9 0.000902 712.67236 1133.86316
1118.6 0.000896 712.73389 1070.45129
1020.8 0.000977 712.79443 987.27356
943.7 0.001061 712.85388 905.38593
861.7 0.001157 712.91223 838.16827
846.8 0.001181 712.96954 790.33069
800.8 0.001249 713.02582 760.16534
725.6 0.001382 713.08099 742.95135
717.3 0.001392 713.13507 733.77722
698.3 0.001435 713.18805 728.97687
672.8 0.001491 713.23999 726.34229
705.6 0.001413 713.29083 724.74194
748.3 0.001332 713.34052 723.66241
720.0 0.001392 713.38916 722.88593
688.8 0.001457 713.43665 722.31927
747.6 0.001342 713.48309 721.91821
741.2 0.001352 713.52832 721.65985
753.5 0.001332 713.57251 721.22003
688.0 0.001457 713.61554 721.23206
695.7 0.001435 713.65747 721.38147
686.8 0.001457 713.69824 721.57465
755.7 0.001322 713.73792 722.13391
724.1 0.001382 713.77643 723.11365
712.0 0.001403 713.81378 725.00049
700.2 0.001424 713.84998 728.50012
716.6 0.001392 713.88507 735.20392
740.5 0.001352 713.91901 747.39056
765.5 0.001303 713.95178 767.74426
785.6 0.001276 713.98340 798.39917
813.7 0.001231 714.01385 838.96533
885.3 0.001126 714.04315 885.49585
885.7 0.001126 714.07129 929.44104
883.7 0.001134 714.09827 958.71100
890.5 0.001126 714.12402 962.37207
929.9 0.001075 714.14868 938.84204
899.9 0.001111 714.17212 897.39508
887.9 0.001126 714.19440 850.48389
787.1 0.001266 714.21545 807.76080
775.7 0.001285 714.23535 774.40509
752.9 0.001332 714.25409 751.48651
703.1 0.001424 714.27167 737.16754
677.7 0.001479 714.28802 729.21649
696.8 0.001435 714.30322 724.97595
708.6 0.001413 714.31720 722.72449
721.3 0.001382 714.32996 721.45752
707.0 0.001413 714.34155 720.66833
699.3 0.001435 714.35199 720.03253
743.8 0.001342 714.36121 719.64642
665.4 0.001502 714.36926 719.37152
697.9 0.001435 714.37610 719.19104
666.7 0.001502 714.38171 719.09882
695.4 0.001435 714.38617 719.09161
715.5 0.001403 714.38940 719.16522
690.9 0.001446 714.39142 719.30865
712.1 0.001403 714.39227 719.50391
763.9 0.001313 714.39197 719.72821
716.5 0.001392 714.39044 719.96564
690.5 0.001446 714.38770 720.22894
715.6 0.001392 714.38373 720.57434
744.0 0.001342 714.37860 721.11102
720.1 0.001392 714.37225 722.04510
698.4 0.001435 714.36475 723.46857
700.1 0.001424 714.35602 726.79419
722.0 0.001382 714.34613 733.36896
759.2 0.001313 714.33502 744.32599
710.5 0.001403 714.32269 762.11542
778.9 0.001285 714.30920 788.22229
790.1 0.001266 714.29456 822.30994
877.1 0.001141 714.27869 861.09613
959.3 0.001041 714.26160 898.07672
936.8 0.001068 714.24335 923.66943
886.3 0.001126 714.22394 928.91827
929.7 0.001075 714.20331 911.93573
922.5 0.001082 714.18152 879.20905
855.3 0.001173 714.15851 840.49097
805.0 0.001240 714.13440 803.89233
785.4 0.001276 714.10907 774.23669
735.2 0.001362 714.08258 753.07336
729.8 0.001372 714.05487 739.67725
693.0 0.001446 714.02606 731.93835
674.3 0.001479 713.99603 727.94263
640.0 0.001562 713.96484 726.20477
706.4 0.001413 713.93250 725.91333
748.5 0.001332 713.89905 726.88239
736.1 0.001362 713.86438 729.46710
716.0 0.001392 713.82861 734.47980
684.1 0.001457 713.79163 743.03467
741.3 0.001352 713.75354 756.23602
760.2 0.001313 713.71429 774.70374
763.1 0.001313 713.67395 798.07800
799.0 0.001249 713.63245 824.67841
819.7 0.001223 713.58978 851.42023
850.9 0.001173 713.54602 874.39288
867.0 0.001157 713.50116 890.79883
905.9 0.001104 713.45514 900.46088
934.1 0.001068 713.40802 904.05103
932.9 0.001075 713.35980 900.62836
930.7 0.001075 713.31042 888.01520
957.5 0.001047 713.26001 865.93011
889.8 0.001126 713.20844 837.77179
890.8 0.001126 713.15582 808.47235
829.1 0.001206 713.10211 782.05170
794.5 0.001257 713.04730 760.68219
722.1 0.001382 712.99139 745.32294
720.3 0.001392 712.93445 735.22070
765.0 0.001303 712.87646 729.12469
774.2 0.001294 712.81738 725.70221
718.5 0.001392 712.75720 723.88129
731.6 0.001372 712.69604 722.94922
709.3 0.001413 712.63379 722.49707
729.6 0.001372 712.57050 722.31995
769.7 0.001303 712.50623 722.32452
708.7 0.001413 712.44086 722.47345
713.1 0.001403 712.37451 722.75537
758.0 0.001322 712.30713 723.17218
734.5 0.001362 712.23877 723.73419
709.0 0.001413 712.16937 724.46002
756.7 0.001322 712.09900 725.37939
703.9 0.001424 712.02759 726.54327
715.0 0.001403 711.95526 728.04767
742.8 0.001342 711.88190 730.09125
725.5 0.001382 711.80762 733.09534
766.8 0.001303 711.73236 737.91858
725.9 0.001382 711.65613 746.26294
758.7 0.001322 711.57898 760.65039
761.4 0.001313 711.50085 785.07928
811.5 0.001231 711.42181 824.24451
912.3 0.001096 711.34186 882.35651
1003.7 0.000995 711.26099 961.14032
1140.5 0.000875 711.17920 1057.76782
1194.0 0.000835 711.09650 1163.65552
1369.1 0.000730 711.01288 1264.75281
1384.7 0.000723 710.92841 1344.43762
1471.5 0.000678 710.84308 1391.58228
1475.0 0.000678 710.75684 1409.43494
1424.5 0.000704 710.66974 1411.83484
1438.3 0.000696 710.58185 1410.12878
1384.2 0.000723 710.49304 1405.34436
1361.3 0.000734 710.40344 1388.89771
1324.7 0.000755 710.31299 1350.17261
1255.0 0.000798 710.22174 1285.54260
1203.9 0.000831 710.12964 1202.65088
1102.0 0.000907 710.03674 1115.61072
989.0 0.001014 709.94312 1038.09180
957.4 0.001047 709.84863 978.29559
927.8 0.001075 709.75342 937.76544
910.7 0.001096 709.65747 911.76312
907.4 0.001104 709.56073 892.62598
1000.0 0.001001 709.46326 873.06000
851.4 0.001173 709.36505 849.83923
880.9 0.001134 709.26611 823.97290
815.9 0.001223 709.16644 798.24194
780.6 0.001285 709.06610 775.25793
718.7 0.001392 708.96503 756.64032
762.1 0.001313 708.86328 742.83325
739.8 0.001352 708.76086 733.34106
764.6 0.001303 708.65784 727.17456
699.3 0.001435 708.55408 723.27728
694.8 0.001435 708.44971 720.78394
708.7 0.001413 708.34473 719.10071
697.2 0.001435 708.23907 717.86987
718.4 0.001392 708.13281 716.82428
747.8 0.001342 708.02600 716.01410
716.4 0.001392 707.91858 715.31421
755.4 0.001322 707.81055 714.69788
760.7 0.001313 707.70197 714.14893
695.8 0.001435 707.59283 713.56836
659.1 0.001514 707.48315 713.12701
673.1 0.001491 707.37299 712.72748
693.8 0.001446 707.26221 712.36505
684.7 0.001457 707.15100 712.03528
770.9 0.001294 707.03925 711.73492
716.0 0.001392 706.92700 711.46173
715.3 0.001403 706.81433 711.21350
673.6 0.001479 706.70111 711.03949
712.6 0.001403 706.58752 710.83887
672.5 0.001491 706.47345 710.66083
679.6 0.001468 706.35895 710.50500
709.7 0.001413 706.24402 710.37231
706.0 0.001413 706.12872 710.26361
725.9 0.001382 706.01300 710.18036
738.1 0.001352 705.89691 710.12585
775.6 0.001285 705.78052 710.10376
722.9 0.001382 705.66370 710.11951
719.3 0.001392 705.54651 710.18329
730.4 0.001372 705.42908 710.31348
740.5 0.001352 705.31128 710.89825
741.7 0.001352 705.19318 711.32410
704.7 0.001424 705.07477 712.08777
704.2 0.001424 704.95605 713.47778
696.6 0.001435 704.83716 716.08911
677.4 0.001479 704.71796 720.42627
691.8 0.001446 704.59851 727.52252
702.1 0.001424 704.47888 738.33362
733.7 0.001362 704.35901 753.50568
761.2 0.001313 704.23889 772.93011
788.9 0.001266 704.11865 795.33160
787.1 0.001266 703.99823 818.06152
804.5 0.001240 703.87762 837.21869
792.8 0.001257 703.75690 848.35455
812.4 0.001231 703.63599 848.23206
794.3 0.001257 703.51501 836.52521
814.6 0.001231 703.39386 817.30908
776.7 0.001285 703.27271 794.65802
734.6 0.001362 703.15143 772.46515
720.1 0.001392 703.03009 753.37488
745.8 0.001342 702.90869 738.67987
709.2 0.001413 702.78723 728.35376
693.5 0.001446 702.66577 722.06525
698.2 0.001435 702.54431 719.26733
704.0 0.001424 702.42285 719.14819
711.8 0.001403 702.30139 721.45911
749.3 0.001332 702.17999 726.39026
718.4 0.001392 702.05859 734.55103
745.6 0.001342 701.93726 746.83203
766.8 0.001303 701.81604 764.18524
807.9 0.001240 701.69489 786.92468
829.2 0.001206 701.57385 814.91193
833.6 0.001197 701.45288 846.38690
850.7 0.001173 701.33209 878.00848
852.0 0.001173 701.21143 904.73920
911.3 0.001096 701.09094 920.62079
912.1 0.001096 700.97058 920.96832
867.7 0.001149 700.85046 905.24445
879.2 0.001134 700.73053 877.52478
764.4 0.001313 700.61084 843.91693
791.8 0.001266 700.49133 810.04749
743.4 0.001342 700.37207 779.94385
732.1 0.001362 700.25311 755.76630
713.6 0.001403 700.13440 737.99652
712.8 0.001403 700.01599 725.93365
725.0 0.001382 699.89789 718.29895
682.1 0.001468 699.78009 713.74078
726.1 0.001382 699.66266 711.13483
708.1 0.001413 699.54553 709.68707
725.7 0.001382 699.42877 708.90656
698.8 0.001435 699.31244 708.52991
724.0 0.001382 699.19647 708.44867
704.6 0.001424 699.08087 708.66455
691.1 0.001446 698.96570 709.27411
694.6 0.001435 698.85101 710.47339
726.0 0.001382 698.73676 712.56543
700.2 0.001424 698.62299 715.94348
731.4 0.001372 698.50964 721.03143
737.5 0.001352 698.39685 728.16193
718.9 0.001392 698.28455 737.40985
728.5 0.001372 698.17279 748.42914
768.9 0.001303 698.06152 760.35217
765.0 0.001303 697.95087 771.81018
788.0 0.001266 697.84070 781.13104
811.5 0.001231 697.73120 786.87543
828.6 0.001206 697.62225 788.78986
822.0 0.001214 697.51398 788.55969
796.8 0.001257 697.40625 789.60602
782.7 0.001276 697.29919 796.31067
802.4 0.001249 697.19281 813.30969
798.1 0.001249 697.08710 844.77795
884.6 0.001134 696.98212 893.50000
940.3 0.001061 696.87775 959.78406
1047.1 0.000953 696.77417 1040.48169
1166.9 0.000855 696.67133 1128.40845
1192.0 0.000840 696.56915 1212.41101
1238.1 0.000807 696.46783 1278.59827
1325.7 0.000755 696.36719 1313.91650
1324.4 0.000755 696.26740 1311.65015
1248.1 0.000803 696.16840 1274.02405
1187.1 0.000840 696.07025 1209.35437
1058.5 0.000947 695.97290 1128.37866
971.7 0.001027 695.87640 1042.26135
900.0 0.001111 695.78082 960.67694
823.2 0.001214 695.68604 890.19769
750.0 0.001332 695.59216 833.66815
721.7 0.001382 695.49927 791.24872
689.3 0.001446 695.40723 761.21094
693.4 0.001446 695.31610 740.98389
717.8 0.001392 695.22595 727.90228
736.1 0.001362 695.13678 719.57318
679.9 0.001468 695.04858 714.43469
678.2 0.001479 694.96136 711.21765
689.9 0.001446 694.87518 709.22058
691.6 0.001446 694.78998 708.09943
706.2 0.001413 694.70581 707.76825
675.6 0.001479 694.62274 708.32153
725.0 0.001382 694.54071 709.96960
691.0 0.001446 694.45972 712.96503
699.7 0.001424 694.37988 717.50800
698.6 0.001435 694.30109 723.63202
733.8 0.001362 694.22345 731.09167
770.3 0.001294 694.14691 739.28790
752.5 0.001332 694.07153 747.25385
784.4 0.001276 693.99731 753.73132
769.0 0.001303 693.92426 757.39972
739.4 0.001352 693.85242 757.34424
739.5 0.001352 693.78174 753.54504
738.5 0.001352 693.71234 746.91016
708.6 0.001413 693.64410 738.82080
745.7 0.001342 693.57709 730.32446
737.3 0.001352 693.51141 722.42914
696.3 0.001435 693.44690 715.53650
736.1 0.001362 693.38373 710.12744
717.6 0.001392 693.32184 706.00085
689.8 0.001446 693.26123 702.96338
702.6 0.001424 693.20197 700.77509
753.3 0.001332 693.14404 699.20782
684.3 0.001457 693.08746 698.07751
686.7 0.001457 693.03223 697.25043
710.0 0.001413 692.97833 696.63495
656.6 0.001526 692.92584 696.16974
704.8 0.001424 692.87469 695.81177
690.5 0.001446 692.82501 695.53094
646.1 0.001550 692.77673 695.30469
699.9 0.001424 692.72986 695.11688
667.4 0.001502 692.68445 694.95703
706.3 0.001413 692.64050 694.81726
682.0 0.001468 692.59802 694.69342
689.3 0.001446 692.55701 694.58234
647.5 0.001550 692.51746 694.48254
694.5 0.001435 692.47943 694.45343
690.6 0.001446 692.44287 694.37384
723.5 0.001382 692.40790 694.30280
707.3 0.001413 692.37445 694.23981
732.6 0.001362 692.34247 694.18475
688.8 0.001457 692.31213 694.18567
750.8 0.001332 692.28333 694.14703
741.5 0.001352 692.25610 694.11591
697.8 0.001435 692.23047 694.09271
693.7 0.001446 692.20642 694.07727
709.4 0.001413 692.18402 694.02087
712.7 0.001403 692.16321 694.02393
745.1 0.001342 692.14404 694.03589
741.8 0.001352 692.12646 694.05792
692.3 0.001446 692.11060 694.09058
723.6 0.001382 692.09637 694.13531
667.2 0.001502 692.08380 694.19354
678.3 0.001479 692.07294 694.26709
716.6 0.001392 692.06372 694.35956
710.5 0.001403 692.05627 694.47607
721.0 0.001382 692.05048 694.62598
715.1 0.001403 692.04639 694.87152
691.2 0.001446 692.04407 694.89679
675.0 0.001479 692.04346 695.37555
667.1 0.001502 692.04462 696.04388
675.4 0.001479 692.04749 697.09552
692.4 0.001446 692.05212 698.64215
696.5 0.001435 692.05853 701.19482
707.9 0.001413 692.06677 704.98981
715.5 0.001403 692.07678 710.37909
720.5 0.001392 692.08856 717.63263
723.1 0.001382 692.10211 726.82867
712.9 0.001403 692.11749 737.73718
694.9 0.001435 692.13470 749.73871
771.5 0.001294 692.15375 761.79871
775.2 0.001294 692.17462 772.51715
790.9 0.001266 692.19733 780.29816
772.0 0.001294 692.22192 783.71405
768.9 0.001303 692.24829 782.06329
772.0 0.001294 692.27661 775.73383
716.4 0.001392 692.30670 765.99609
714.9 0.001403 692.33875 754.64465
690.2 0.001446 692.37262 742.78241
712.3 0.001403 692.40839 731.76050
729.5 0.001372 692.44604 722.33392
697.0 0.001435 692.48566 714.85895
687.3 0.001457 692.52710 709.36792
721.2 0.001382 692.57050 705.68640
758.4 0.001322 692.61578 703.56390
695.0 0.001435 692.66296 702.78851
668.8 0.001491 692.71210 703.26514
684.1 0.001457 692.76318 705.01489
711.0 0.001403 692.81616 708.34869
733.8 0.001362 692.87109 713.55981
738.6 0.001352 692.92798 721.01678
786.8 0.001276 692.98682 731.00092
719.1 0.001392 693.04761 743.53455
779.1 0.001285 693.11035 758.27826
811.5 0.001231 693.17505 774.40735
821.0 0.001214 693.24170 790.60022
825.3 0.001214 693.31030 805.08978
830.4 0.001206 693.38092 815.86615
856.2 0.001165 693.45349 821.09839
843.0 0.001189 693.52802 819.78143
853.0 0.001173 693.60449 812.22058
847.2 0.001181 693.68298 799.87585
847.4 0.001181 693.76349 784.73529
786.1 0.001276 693.84595 768.74829
748.4 0.001332 693.93036 753.52069
713.2 0.001403 694.01685 740.19305
708.0 0.001413 694.10522 729.42749
735.9 0.001362 694.19568 721.47687
715.6 0.001392 694.28809 716.31134
707.0 0.001413 694.38245 713.76593
718.8 0.001392 694.47882 713.66724
727.6 0.001372 694.57721 715.90881
709.9 0.001413 694.67761 720.46747
808.7 0.001240 694.77997 727.35834
768.9 0.001303 694.88434 736.55664
768.1 0.001303 694.99072 747.90051
784.3 0.001276 695.09906 761.00641
791.0 0.001266 695.20947 775.20795
807.4 0.001240 695.32178 789.53436
808.7 0.001240 695.43616 802.76013
831.2 0.001206 695.55249 813.58667
849.4 0.001181 695.67078 820.97211
859.0 0.001165 695.79108 824.40375
871.6 0.001149 695.91339 823.87201
894.1 0.001119 696.03766 819.62531
875.5 0.001141 696.16394 812.03906
845.0 0.001181 696.29218 801.70435
796.9 0.001257 696.42242 789.53925
778.4 0.001285 696.55457 776.69409
806.0 0.001240 696.68878 764.31439
797.7 0.001257 696.82489 753.35980
803.8 0.001240 696.96301 744.54016
777.0 0.001285 697.10309 738.32098
783.8 0.001276 697.24506 734.94415
738.4 0.001352 697.38904 734.45490
756.1 0.001322 697.53497 736.72766
780.6 0.001285 697.68286 741.50085
815.3 0.001223 697.83270 748.41504
783.2 0.001276 697.98444 757.05975
771.3 0.001294 698.13812 767.02863
807.3 0.001240 698.29370 777.94806
759.6 0.001313 698.45123 789.58746
734.9 0.001362 698.61066 801.94519
825.4 0.001214 698.77203 815.32037
911.5 0.001096 698.93530 830.18872
906.9 0.001104 699.10046 846.87195
925.8 0.001082 699.26746 865.18762
906.1 0.001104 699.43640 884.24237
920.9 0.001089 699.60718 902.39600
960.8 0.001041 699.77991 917.39758
988.0 0.001014 699.95441 926.75385
953.7 0.001047 700.13080 928.39734
944.6 0.001061 700.30902 921.47919
898.3 0.001111 700.48907 906.77600
874.0 0.001141 700.67102 886.39819
892.7 0.001119 700.85474 863.11127
844.5 0.001181 701.04028 840.02783
826.4 0.001214 701.22760 819.16553
789.9 0.001266 701.41675 802.86877
744.8 0.001342 701.60767 793.02637
804.9 0.001240 701.80035 790.38007
805.2 0.001240 701.99481 795.60291
823.4 0.001214 702.19104 808.66394
857.0 0.001165 702.38904 828.92963
859.2 0.001165 702.58875 855.11615
881.5 0.001134 702.79016 885.25592
895.6 0.001119 702.99329 916.71741
960.6 0.001041 703.19812 946.30078
958.7 0.001041 703.40466 970.46521
947.4 0.001054 703.61292 985.79492
948.5 0.001054 703.82281 989.79071
899.1 0.001111 704.03436 981.71973
906.8 0.001104 704.24750 962.89697
894.1 0.001119 704.46234 936.12445
802.3 0.001249 704.67877 904.77191
824.3 0.001214 704.89685 872.05768
816.1 0.001223 705.11646 840.65033
807.7 0.001240 705.33771 812.47974
763.6 0.001313 705.56049 788.68475
789.1 0.001266 705.78485 769.66595
773.6 0.001294 706.01074 755.22809
770.1 0.001294 706.23810 744.76825
713.3 0.001403 706.46704 737.47925
736.0 0.001362 706.69745 732.39972
760.5 0.001313 706.92938 728.94745
738.5 0.001352 707.16272 726.42755
740.7 0.001352 707.39752 724.43262
754.6 0.001322 707.63379 722.72913
682.0 0.001468 707.87146 721.21997
737.9 0.001352 708.11053 719.84576
766.0 0.001303 708.35101 718.62268
738.2 0.001352 708.59283 717.56647
741.3 0.001352 708.83606 716.69135
705.0 0.001413 709.08057 716.00049
703.4 0.001424 709.32648 715.48627
710.1 0.001413 709.57361 715.13074
724.3 0.001382 709.82208 714.91016
724.3 0.001382 710.07178 714.79913
677.9 0.001479 710.32275 714.77356
739.9 0.001352 710.57495 714.81287
742.9 0.001342 710.82843 714.90088
732.0 0.001362 711.08301 715.02527
685.4 0.001457 711.33887 715.32721
709.0 0.001413 711.59583 715.50433
742.4 0.001352 711.85394 715.69940
774.9 0.001294 712.11316 715.84998
719.9 0.001392 712.37347 716.07678
720.4 0.001392 712.63495 716.31635
718.1 0.001392 712.89740 716.56873
735.8 0.001362 713.16095 716.83380
739.5 0.001352 713.42548 717.06372
761.5 0.001313 713.69104 717.35529
748.9 0.001332 713.95758 717.66034
728.4 0.001372 714.22510 717.98059
697.2 0.001435 714.49359 718.31805
711.3 0.001403 714.76294 718.67944
740.4 0.001352 715.03320 719.07458
710.8 0.001403 715.30438 719.49237
760.8 0.001313 715.57642 720.06396
697.1 0.001435 715.84924 720.58368
717.1 0.001392 716.12292 721.17572
733.3 0.001362 716.39740 721.85681
793.3 0.001257 716.67261 722.64392
759.5 0.001313 716.94861 723.55005
736.7 0.001362 717.22528 724.58246
751.3 0.001332 717.50269 725.76874
741.7 0.001352 717.78076 726.98383
689.3 0.001446 718.05951 728.31921
713.3 0.001403 718.33887 729.68317
720.6 0.001392 718.61884 731.01617
736.5 0.001362 718.89941 732.25214
776.3 0.001285 719.18054 733.32550
774.9 0.001294 719.46222 734.18494
746.5 0.001342 719.74438 734.81183
823.5 0.001214 720.02704 735.22919
755.3 0.001322 720.31018 735.50244
749.9 0.001332 720.59375 735.72644
751.6 0.001332 720.87775 736.01971
741.7 0.001352 721.16211 736.52271
762.6 0.001313 721.44684 737.40808
762.7 0.001313 721.73193 738.89911
766.6 0.001303 722.01733 741.29218
759.1 0.001313 722.30304 745.01868
778.0 0.001285 722.58899 750.54938
728.5 0.001372 722.87524 758.45819
720.5 0.001392 723.16162 769.87122
787.2 0.001266 723.44824 785.60828
845.3 0.001181 723.73499 806.68890
868.5 0.001149 724.02191 834.06934
911.2 0.001096 724.30890 868.48077
956.8 0.001047 724.59601 910.23853
1033.6 0.000970 724.88318 959.04480
1102.9 0.000907 725.17035 1013.82220
1126.3 0.000886 725.45758 1072.60461
1211.2 0.000826 725.74475 1132.51538
1259.3 0.000793 726.03186 1189.85095
1246.2 0.000803 726.31891 1240.32019
1247.4 0.000803 726.60583 1279.49683
1275.2 0.000785 726.89264 1303.53503
1263.2 0.000793 727.17932 1309.96387
1252.3 0.000798 727.46576 1298.23389
1220.1 0.000821 727.75208 1269.76245
1132.2 0.000886 728.03809 1227.55139
1067.9 0.000935 728.32385 1175.39575
974.5 0.001027 728.60931 1118.00000
935.8 0.001068 728.89441 1059.23267
932.3 0.001075 729.17926 1002.51691
840.3 0.001189 729.46362 950.43152
798.6 0.001249 729.74768 904.65210
772.2 0.001294 730.03125 866.00555
783.5 0.001276 730.31439 834.60400
775.9 0.001285 730.59698 810.01971
783.9 0.001276 730.87915 791.47925
763.4 0.001313 731.16071 778.03815
730.1 0.001372 731.44171 768.72693
710.1 0.001413 731.72211 762.64679
707.1 0.001413 732.00189 759.02710
761.9 0.001313 732.28107 757.23633
789.9 0.001266 732.55951 756.80090
777.3 0.001285 732.83722 757.34485
766.0 0.001303 733.11420 758.58789
739.3 0.001352 733.39044 760.37103
793.6 0.001257 733.66589 762.40247
787.1 0.001266 733.94049 764.60095
794.6 0.001257 734.21429 766.86487
798.8 0.001249 734.48718 769.14258
815.5 0.001223 734.75916 771.44391
768.7 0.001303 735.03021 773.84778
757.7 0.001322 735.30029 776.49164
780.4 0.001285 735.56940 779.59540
819.1 0.001223 735.83746 783.44989
824.9 0.001214 736.10449 788.41132
818.7 0.001223 736.37048 794.86426
832.9 0.001197 736.63531 803.16113
840.5 0.001189 736.89905 813.55121
852.4 0.001173 737.16168 826.11481
893.2 0.001119 737.42310 840.70837
897.1 0.001111 737.68329 856.93237
903.1 0.001104 737.94220 874.11932
898.4 0.001111 738.19989 891.36951
932.9 0.001075 738.45636 907.51904
953.3 0.001047 738.71143 921.33203
876.9 0.001141 738.96515 931.56067
967.9 0.001034 739.21753 937.16071
951.4 0.001054 739.46857 937.53156
961.1 0.001041 739.71808 932.67810
932.5 0.001075 739.96619 923.21783
911.0 0.001096 740.21283 910.22717
829.2 0.001206 740.45801 894.92914
843.6 0.001189 740.70160 878.62103
828.8 0.001206 740.94366 862.46686
838.5 0.001189 741.18414 847.44696
816.0 0.001223 741.42303 834.32172
783.5 0.001276 741.66028 823.62421
783.8 0.001276 741.89594 815.67499
792.2 0.001266 742.12982 810.61615
812.0 0.001231 742.36206 808.45831
800.8 0.001249 742.59259 809.12946
786.4 0.001276 742.82135 812.51782
842.2 0.001189 743.04828 818.49438
862.9 0.001157 743.27350 826.90613
887.9 0.001126 743.49683 837.54877
903.8 0.001104 743.71838 850.12408
919.4 0.001089 743.93805 864.20447
902.8 0.001111 744.15582 879.21246
937.1 0.001068 744.37170 894.40656
968.7 0.001034 744.58563 908.92413
945.7 0.001054 744.79761 921.78827
942.4 0.001061 745.00757 932.02130
976.2 0.001027 745.21558 938.77924
1012.2 0.000989 745.42157 941.50751
957.0 0.001047 745.62555 940.04724
904.2 0.001104 745.82745 934.63226
868.1 0.001149 746.02728 925.78650
811.2 0.001231 746.22498 914.19958
853.2 0.001173 746.42059 900.63513
887.1 0.001126 746.61407 885.88318
812.6 0.001231 746.80536 870.72504
815.9 0.001223 746.99451 855.89294
828.5 0.001206 747.18146 842.02240
786.0 0.001276 747.36621 829.61145
814.2 0.001231 747.54877 819.00140
792.5 0.001257 747.72906 810.37604
795.4 0.001257 747.90710 803.77350
809.2 0.001240 748.08282 799.10675
788.6 0.001266 748.25635 796.18561
758.5 0.001322 748.42749 794.74084
815.2 0.001223 748.59637 794.44495
792.4 0.001257 748.76288 794.93420
762.3 0.001313 748.92706 795.82867
766.1 0.001303 749.08893 796.75531
748.4 0.001332 749.24841 797.37579
785.0 0.001276 749.40546 797.41571
772.7 0.001294 749.56018 796.69958
782.9 0.001276 749.71246 795.16565
772.9 0.001294 749.86237 792.86078
772.4 0.001294 750.00983 789.91522
803.8 0.001240 750.15485 786.50732
802.0 0.001249 750.29742 782.83209
757.5 0.001322 750.43756 779.08673
744.4 0.001342 750.57526 775.14294
737.9 0.001352 750.71051 771.70593
793.5 0.001257 750.84326 768.45197
790.9 0.001266 750.97351 765.73083
717.4 0.001392 751.10132 763.42871
728.1 0.001372 751.22668 761.54822
708.5 0.001413 751.34949 760.07074
740.6 0.001352 751.46985 758.96539
748.6 0.001332 751.58765 758.19653
716.4 0.001392 751.70300 757.73035
780.0 0.001285 751.81586 757.65143
816.7 0.001223 751.92621 757.74829
751.5 0.001332 752.03412 758.09467
739.9 0.001352 752.13947 758.72784
720.5 0.001392 752.24231 759.68268
734.0 0.001362 752.34271 761.00763
781.1 0.001285 752.44061 762.76123
785.0 0.001276 752.53601 765.00574
793.0 0.001257 752.62891 767.80042
774.8 0.001294 752.71936 771.19202
767.0 0.001303 752.80737 775.20490
765.4 0.001303 752.89288 779.83148
788.7 0.001266 752.97595 785.02368
818.5 0.001223 753.05658 790.68530
778.0 0.001285 753.13483 796.66882
808.0 0.001240 753.21057 802.82800
796.2 0.001257 753.28394 808.81006
805.1 0.001240 753.35492 814.39880
818.2 0.001223 753.42346 819.28473
786.7 0.001276 753.48969 823.16711
727.3 0.001372 753.55353 825.78241
743.8 0.001342 753.61505 826.93115
793.8 0.001257 753.67426 826.56671
789.8 0.001266 753.73114 824.77954
811.1 0.001231 753.78571 821.64386
806.8 0.001240 753.83807 817.46948
770.5 0.001294 753.88812 812.56073
780.3 0.001285 753.93597 807.23328
764.4 0.001313 753.98169 801.78485
774.8 0.001294 754.02515 796.48053
756.3 0.001322 754.06647 791.53931
764.7 0.001303 754.10571 787.15454
755.6 0.001322 754.14282 783.39825
756.3 0.001322 754.17786 780.36108
777.1 0.001285 754.21088 778.06879
759.4 0.001313 754.24188 776.36041
759.5 0.001313 754.27094 775.50220
770.0 0.001303 754.29803 775.28729
796.1 0.001257 754.32324 775.65405
782.6 0.001276 754.34650 776.53680
759.3 0.001313 754.36798 777.86963
746.5 0.001342 754.38770 779.58508
770.4 0.001294 754.40558 781.61176
817.3 0.001223 754.42181 783.87366
782.5 0.001276 754.43634 786.28650
750.8 0.001332 754.44922 788.75775
772.6 0.001294 754.46057 791.18829
782.2 0.001276 754.47034 793.47760
818.5 0.001223 754.47864 795.52716
779.3 0.001285 754.48547 797.25220
806.3 0.001240 754.49091 798.61182
800.4 0.001249 754.49500 799.55511
806.1 0.001240 754.49780 800.05872
790.5 0.001266 754.49939 800.10895
815.4 0.001223 754.49976 799.69562
828.1 0.001206 754.49902 798.81311
798.8 0.001249 754.49719 797.46344
812.0 0.001231 754.49438 795.66394
777.0 0.001285 754.49066 793.45374
806.0 0.001240 754.48602 790.89520
787.2 0.001266 754.48059 788.07104
826.4 0.001214 754.47443 785.07477
769.7 0.001303 754.46753 782.00183
831.4 0.001206 754.46008 778.94257
777.0 0.001285 754.45203 775.97571
782.5 0.001276 754.44354 773.20386
803.1 0.001249 754.43469 770.60211
771.4 0.001294 754.42548 768.24280
796.6 0.001257 754.41602 766.14624
773.6 0.001294 754.40643 764.31952
797.8 0.001257 754.39679 762.64624
764.4 0.001313 754.38715 761.33917
804.0 0.001240 754.37756 760.26343
816.9 0.001223 754.36816 759.39417
794.8 0.001257 754.35907 758.70447
770.8 0.001294 754.35028 758.16681
787.3 0.001266 754.34198 757.75519
776.3 0.001285 754.33423 757.41498
763.4 0.001313 754.32709 757.18750
752.6 0.001332 754.32068 757.02441
772.7 0.001294 754.31512 756.91058
819.7 0.001223 754.31055 756.83514
759.5 0.001313 754.30695 756.79041
781.5 0.001276 754.30457 756.76770
749.1 0.001332 754.30341 756.77911
726.0 0.001382 754.30359 756.79059
755.2 0.001322 754.30530 756.81500
750.1 0.001332 754.30859 756.85175
717.4 0.001392 754.31360 756.89996
722.3 0.001382 754.32043 756.96033
787.8 0.001266 754.32922 757.03278
753.2 0.001332 754.34009 757.11945
742.5 0.001352 754.35315 757.22150
788.5 0.001266 754.36853 757.34192
731.5 0.001372 754.38641 757.45386
742.8 0.001342 754.40686 757.62335
757.4 0.001322 754.42999 757.82562
732.3 0.001362 754.45605 758.07935
767.1 0.001303 754.48505 758.37225
790.4 0.001266 754.51721 758.72754
730.6 0.001372 754.55261 759.16064
829.6 0.001206 754.59149 759.68964
759.4 0.001313 754.63397 760.33801
761.7 0.001313 754.68011 761.13269
760.1 0.001313 754.73022 762.10602
773.1 0.001294 754.78430 763.32855
774.0 0.001294 754.84259 764.78180
790.1 0.001266 754.90527 766.54858
783.2 0.001276 754.97241 768.68707
769.5 0.001303 755.04425 771.26215
810.3 0.001231 755.12097 774.34351
782.1 0.001276 755.20276 778.00409
815.4 0.001223 755.28967 782.31738
814.1 0.001231 755.38202 787.35461
782.1 0.001276 755.47992 793.17725
814.2 0.001231 755.58356 799.83307
773.6 0.001294 755.69312 807.34973
797.7 0.001257 755.80878 815.72876
842.0 0.001189 755.93079 824.93982
829.1 0.001206 756.05927 834.91791
838.6 0.001189 756.19446 845.55835
890.7 0.001126 756.33655 856.71600
903.6 0.001104 756.48572 868.20355
933.2 0.001075 756.64215 879.79236
912.6 0.001096 756.80615 891.21515
926.8 0.001082 756.97791 902.17297
933.1 0.001075 757.15753 912.34650
1003.3 0.000995 757.34540 921.41339
968.1 0.001034 757.54156 929.07239
979.1 0.001021 757.74640 935.07593
958.1 0.001041 757.96002 939.25946
945.3 0.001061 758.18268 941.56927
989.4 0.001008 758.41467 942.07251
969.0 0.001034 758.65619 940.88989
975.4 0.001027 758.90753 938.40247
929.9 0.001075 759.16882 934.86676
892.9 0.001119 759.44037 930.61542
916.4 0.001089 759.72247 925.96655
930.3 0.001075 760.01532 921.20197
935.0 0.001068 760.31915 916.55127
960.9 0.001041 760.63434 912.18170
858.5 0.001165 760.96106 908.19598
897.9 0.001111 761.29956 904.63354
895.1 0.001119 761.65015 901.48065
898.5 0.001111 762.01312 898.68274
944.2 0.001061 762.38873 896.15979
961.6 0.001041 762.77728 893.81982
848.1 0.001181 763.17902 891.56799
923.5 0.001082 763.59424 889.31183
923.8 0.001082 764.02332 886.96252
895.8 0.001119 764.46643 884.43744
917.1 0.001089 764.92395 881.66388
898.1 0.001111 765.39612 878.58435
889.6 0.001126 765.88330 875.16602
900.1 0.001111 766.38586 871.40698
903.7 0.001104 766.90399 867.34076
882.9 0.001134 767.43811 863.03406
866.1 0.001157 767.98853 858.57983
889.9 0.001126 768.55548 854.08362
860.0 0.001165 769.13940 849.66382
797.0 0.001257 769.74060 845.42242
854.8 0.001173 770.35944 841.44946
843.8 0.001189 770.99622 837.81390
848.2 0.001181 771.65131 834.56165
838.0 0.001197 772.32507 831.71411
858.4 0.001165 773.01782 829.26855
811.9 0.001231 773.72998 827.19879
783.0 0.001276 774.46191 825.46069
815.3 0.001223 775.21393 823.99451
803.4 0.001249 775.98645 822.72980
819.5 0.001223 776.77985 821.57623
824.3 0.001214 777.59448 820.50177
779.8 0.001285 778.43085 819.43060
746.7 0.001342 779.28918 818.32019
756.0 0.001322 780.16998 817.14746
777.7 0.001285 781.07361 815.90491
782.3 0.001276 782.00049 814.60345
769.1 0.001303 782.95105 813.26270
768.8 0.001303 783.92566 811.89160
757.3 0.001322 784.92480 810.56354
796.1 0.001257 785.94885 809.29413
loop_
_refln_index_h
_refln_index_k
_refln_index_l
_refln_observed_status
_refln_F_squared_meas
_refln_F_squared_calc
_refln_phase_calc
_refln_d_spacing
_gsas_i100_meas
1 1 2 o 30.561 30.997 180.00 3.15421 100.00
0 1 3 o 1.419 1.436 180.00 3.10980 4.52
0 0 4 o 0.000 0.435 180.00 2.86911 0.00
0 2 0 o 0.000 0.406 0.00 2.66990 0.00
1 2 1 o 17.268 16.665 0.00 2.33796 31.89
2 1 1 o 7.313 7.058 180.00 2.33796 13.50
1 1 4 o 30.201 30.298 0.00 2.28443 53.40
0 1 5 o 5.371 4.217 180.00 2.10873 8.18
1 2 3 o 1.082 1.054 0.00 2.02574 1.53
2 1 3 o 16.430 16.003 0.00 2.02574 23.25
0 2 4 o 69.025 67.262 0.00 1.95454 91.51
2 2 0 o 70.649 71.487 180.00 1.88791 43.99
2 2 2 o 0.001 0.004 0.00 1.79334 0.00
0 3 1 o 1.409 1.292 180.00 1.75891 1.55
1 1 6 o 24.410 22.943 0.00 1.70630 25.40
2 1 5 o 0.088 0.083 0.00 1.65483 0.09
1 2 5 o 6.160 5.821 0.00 1.65483 6.08
1 3 2 o 11.486 10.943 0.00 1.61991 10.93
3 1 2 o 38.484 36.667 180.00 1.61991 36.62
0 3 3 o 5.381 5.713 180.00 1.61380 5.09
2 2 4 o 7.313 8.104 0.00 1.57711 6.65
0 1 7 o 3.282 3.686 180.00 1.56728 2.95
0 2 6 o 0.028 0.055 180.00 1.55490 0.02
2 3 1 o 4.093 4.656 180.00 1.46882 3.31
3 2 1 o 8.607 9.792 180.00 1.46882 6.96
1 3 4 o 3.238 4.244 0.00 1.45526 2.58
3 1 4 o 3.188 4.179 180.00 1.45526 2.54
0 0 8 o 0.848 5.814 0.00 1.43456 0.17
0 3 5 o 7.631 6.322 180.00 1.40657 5.76
2 3 3 o 11.918 12.765 0.00 1.38111 8.74
3 2 3 o 0.095 0.101 180.00 1.38111 0.07
1 2 7 o 2.092 1.975 180.00 1.35161 1.48
2 1 7 o 0.983 0.928 0.00 1.35161 0.70
2 2 6 o 0.000 0.000 0.00 1.34365 0.00
1 1 8 o 21.404 21.416 0.00 1.34103 15.00
0 4 0 o 33.680 30.473 0.00 1.33495 11.72
0 4 2 o 13.857 14.428 180.00 1.30023 9.28
4 1 1 o 5.277 4.751 0.00 1.28692 3.48
1 4 1 o 5.632 5.071 0.00 1.28692 3.71
1 3 6 o 41.561 42.392 180.00 1.26588 26.77
3 1 6 o 2.904 2.962 0.00 1.26588 1.87
0 2 8 o 30.584 28.986 180.00 1.26369 19.65
3 2 5 o 15.286 13.001 180.00 1.24444 9.62
2 3 5 o 4.206 3.577 0.00 1.24444 2.65
0 1 9 o 0.915 0.687 180.00 1.24029 0.57
3 3 2 o 18.774 16.234 0.00 1.22938 11.61
4 1 3 o 6.471 5.117 180.00 1.22670 3.99
1 4 3 o 1.504 1.189 0.00 1.22670 0.93
0 4 4 o 10.064 10.672 180.00 1.21035 6.10
0 3 7 o 4.732 5.019 180.00 1.20589 2.85
4 2 0 o 18.188 16.772 180.00 1.19402 5.41
2 4 0 o 17.704 16.326 0.00 1.19402 5.27
2 4 2 o 3.989 5.240 0.00 1.16898 2.31
4 2 2 o 3.536 4.645 0.00 1.16898 2.05
3 3 4 o 0.001 0.025 0.00 1.15258 0.00
2 2 8 o 8.075 8.989 180.00 1.14221 4.55
4 1 5 o 0.455 0.532 180.00 1.12793 0.25
1 4 5 o 3.722 4.345 0.00 1.12793 2.07
2 1 9 o 7.326 5.894 0.00 1.12484 4.06
1 2 9 o 0.032 0.026 0.00 1.12484 0.02
2 4 4 o 13.633 12.600 180.00 1.10237 7.39
4 2 4 o 13.415 12.398 0.00 1.10237 7.27
2 3 7 o 5.518 5.497 0.00 1.09900 2.98
3 2 7 o 7.526 7.497 0.00 1.09900 4.07
1 1 10 o 12.981 13.113 180.00 1.09805 7.01
0 4 6 o 0.243 0.231 180.00 1.09470 0.13
1 3 8 o 3.358 3.000 0.00 1.09328 1.80
3 1 8 o 3.306 2.954 180.00 1.09328 1.78
4 3 1 o 0.636 0.909 0.00 1.06337 0.33
3 4 1 o 4.496 6.424 180.00 1.06337 2.35
0 5 1 o 0.000 0.000 0.00 1.06337 0.00
0 2 10 o 0.590 0.647 0.00 1.05437 0.31
3 3 6 o 9.697 11.436 180.00 1.05140 5.03
0 3 9 o 4.221 4.041 180.00 1.03660 2.16
5 1 2 o 2.848 3.080 180.00 1.03021 1.45
1 5 2 o 23.483 25.392 180.00 1.03021 11.98
3 4 3 o 0.113 0.137 0.00 1.02863 0.06
4 3 3 o 7.089 8.621 180.00 1.02863 3.61
0 5 3 o 0.045 0.055 180.00 1.02863 0.02
0 1 11 o 0.011 0.045 180.00 1.02395 0.01
1 4 7 o 2.055 2.088 180.00 1.01627 1.04
4 1 7 o 1.407 1.430 180.00 1.01627 0.71
2 4 6 o 0.103 0.084 0.00 1.01287 0.05
4 2 6 o 0.092 0.074 0.00 1.01287 0.05
5 2 1 o 3.850 4.645 0.00 0.98790 1.92
2 5 1 o 0.983 1.186 180.00 0.98790 0.49
5 1 4 o 0.006 0.006 180.00 0.98374 0.00
1 5 4 o 0.002 0.002 180.00 0.98374 0.00
2 2 10 o 0.001 0.001 180.00 0.98067 0.00
0 4 8 o 10.554 8.406 0.00 0.97727 5.23
0 5 5 o 1.586 1.164 180.00 0.96828 0.78
4 3 5 o 0.897 0.659 180.00 0.96828 0.44
3 4 5 o 5.148 3.780 180.00 0.96828 2.54
2 3 9 o 6.173 4.307 0.00 0.96632 3.05
3 2 9 o 0.160 0.112 180.00 0.96632 0.08
5 2 3 o 0.171 0.135 0.00 0.95986 0.08
2 5 3 o 5.033 3.960 0.00 0.95986 2.48
0 0 12 o 48.239 42.556 180.00 0.95637 5.94
1 2 11 o 5.033 4.492 180.00 0.95605 2.48
2 1 11 o 0.385 0.344 180.00 0.95605 0.19
1 3 10 o 3.611 3.846 0.00 0.94918 1.78
3 1 10 o 16.016 17.059 180.00 0.94918 7.88
3 3 8 o 0.020 0.018 0.00 0.94609 0.01
4 4 0 o 2.068 1.310 0.00 0.94395 0.51
4 4 2 o 0.012 0.004 180.00 0.93143 0.01
1 1 12 o 1.492 0.630 0.00 0.92709 0.74
5 1 6 o 32.955 33.246 0.00 0.91856 16.30
1 5 6 o 0.002 0.002 0.00 0.91856 0.00
2 4 8 o 7.508 8.390 0.00 0.91772 3.71
4 2 8 o 7.446 8.321 180.00 0.91772 3.68
2 5 5 o 0.043 0.033 180.00 0.91027 0.02
5 2 5 o 1.057 0.807 0.00 0.91027 0.52
1 4 9 o 0.197 0.145 180.00 0.90864 0.10
4 1 9 o 1.772 1.307 180.00 0.90864 0.88
5 3 2 o 12.529 12.025 0.00 0.90432 6.25
3 5 2 o 5.106 4.900 180.00 0.90432 2.55
0 2 12 o 0.373 0.373 0.00 0.90035 0.19
0 3 11 o 1.276 1.245 180.00 0.90009 0.64
4 4 4 o 14.941 14.590 180.00 0.89667 7.49
0 5 7 o 0.858 0.999 180.00 0.89485 0.43
4 3 7 o 1.046 1.218 180.00 0.89485 0.53
3 4 7 o 1.600 1.863 0.00 0.89485 0.80
0 6 0 o 4.586 7.830 180.00 0.88997 1.16
0 6 2 o 4.231 7.055 180.00 0.87945 2.17
6 1 1 o 0.247 0.370 0.00 0.87530 0.13
1 6 1 o 0.085 0.127 0.00 0.87530 0.04
3 5 4 o 1.223 1.207 0.00 0.87241 0.63
5 3 4 o 1.342 1.325 180.00 0.87241 0.70
0 1 13 o 0.146 0.111 180.00 0.87098 0.08
0 4 10 o 4.236 2.704 0.00 0.87026 2.20
6 1 3 o 0.703 0.535 0.00 0.85562 0.38
1 6 3 o 0.939 0.714 180.00 0.85562 0.50
2 2 12 o 17.613 15.247 0.00 0.85315 9.53
2 3 11 o 0.525 0.458 180.00 0.85292 0.28
3 2 11 o 2.426 2.116 0.00 0.85292 1.31
0 6 4 o 7.584 6.825 0.00 0.85001 4.14
4 4 6 o 0.000 0.000 180.00 0.84648 0.00
5 2 7 o 0.204 0.185 180.00 0.84847 0.11
2 5 7 o 0.029 0.026 0.00 0.84847 0.02
3 3 10 o 7.512 6.939 0.00 0.84803 4.13
5 1 8 o 0.003 0.004 180.00 0.84583 0.00
1 5 8 o 0.001 0.001 180.00 0.84583 0.00
2 6 0 o 1.622 3.678 180.00 0.84430 0.45
6 2 0 o 1.477 3.349 180.00 0.84430 0.41
