#------------------------------------------------------------------------------
#$Date: 2021-09-06 14:08:26 +0300 (Mon, 06 Sep 2021) $
#$Revision: 268751 $
#$URL: file:///home/coder/svn-repositories/cod/cif/7/70/79/7707931.cif $
#------------------------------------------------------------------------------
#
# This file is available in the Crystallography Open Database (COD),
# http://www.crystallography.net/
#
# All data on this site have been placed in the public domain by the
# contributors.
#
data_7707931
loop_
_publ_author_name
'Saura-M\'uzquiz, Matilde'
'Mullens, Bryce G.'
'Maynard-Casely, Helen E'
'Kennedy, Brendan J.'
_publ_section_title
;
 Neutron diffraction study of the monoclinic - tetragonal&#x00A0;phase
 transition in NdNbO<sub>4</sub> and NdTaO<sub>4</sub>.
;
_journal_issue                   33
_journal_name_full
'Dalton transactions (Cambridge, England : 2003)'
_journal_page_first              11485
_journal_page_last               11497
_journal_paper_doi               10.1039/d1dt01981c
_journal_volume                  50
_journal_year                    2021
_chemical_formula_sum            'Nb Nd O4'
_chemical_formula_weight         301.14
_space_group_IT_number           15
_space_group_name_Hall           '-I 2ya'
_space_group_name_H-M_alt        'I 1 2/a 1'
_symmetry_cell_setting           monoclinic
_symmetry_space_group_name_H-M   'I 1 2/a 1'
_audit_creation_date             2021-05-28T16:19
_audit_creation_method           'from EXP file using GSAS2CIF'
_audit_update_record
' 2021-05-28T16:19  Initial CIF as created by GSAS2CIF'
_cell_angle_alpha                90.0
_cell_angle_beta                 94.5234(25)
_cell_angle_gamma                90.0
_cell_formula_units_Z            4
_cell_length_a                   5.46272(18)
_cell_length_b                   11.2666(4)
_cell_length_c                   5.14029(18)
_cell_volume                     315.380(19)
_computing_structure_refinement  GSAS
_diffrn_radiation_probe          neutron
_diffrn_radiation_wavelength     1.5413
_exptl_absorpt_correction_T_max  1.00000
_exptl_absorpt_correction_T_min  1.00000
_exptl_absorpt_process_details
;   GSAS Absorption/surface roughness correction: function number 0
 No correction is applied.
;
_pd_block_id                     2021-05-28T16:19|NDNBO4_HEATING_MONO|bjk|Wombat
_pd_calc_method                  'Rietveld Refinement'
_pd_instr_location               ' ?'
_pd_meas_2theta_range_inc        0.0625
_pd_meas_2theta_range_max        132.4383
_pd_meas_2theta_range_min        19.5008
_pd_meas_number_of_points        1808
_pd_phase_name                   NdNbO4_heating/Monoclinic
_pd_proc_2theta_range_inc        0.0625
_pd_proc_2theta_range_max        132.3723
_pd_proc_2theta_range_min        19.4348
_pd_proc_info_datetime           2021-05-28T16:19:53
_pd_proc_info_excluded_regions   ' ?'
_pd_proc_ls_background_function
;   GSAS Background function number 1 with 10 terms.
 Shifted Chebyshev function of 1st kind
      1:    497.171     2:   -10.8076     3:    9.47778     4:    10.1405    
      5:   -2.43892     6:   -6.86093     7:    2.71832     8:   -7.70659    
      9:    2.49050    10:    3.62726    
;
_pd_proc_ls_peak_cutoff          0.00100
_pd_proc_ls_profile_function
;
 CW Profile function number 4 with  21 terms
 Pseudovoigt profile coefficients as parameterized in
 P. Thompson, D.E. Cox & J.B. Hastings (1987). J. Appl. Cryst.,20,79-83.
 Asymmetry correction of L.W. Finger, D.E. Cox & A. P. Jephcoat (1994).
 J. Appl. Cryst.,27,892-900.
 Microstrain broadening by P.W. Stephens,  (1999). J. Appl. Cryst.,32,281-289.
 #1(GU)   =  798.376 #2(GV)   = -933.656 #3(GW)   =  509.285
 #4(GP)   =    0.000 #5(LX)   =    5.274 #6(ptec) =     0.00
 #7(trns) =     0.00 #8(shft) =   0.0000 #9(sfec) =     0.00
 #10(S/L) =   0.0500 #11(H/L) =   0.0500 #12(eta) =   0.0000
 #13(S400 ) =  0.0E+00 #14(S040 ) =  0.0E+00 #15(S004 ) =  0.0E+00
 #16(S220 ) =  0.0E+00 #17(S202 ) =  0.0E+00 #18(S022 ) =  0.0E+00
 #19(S301 ) =  0.0E+00 #20(S103 ) =  0.0E+00 #21(S121 ) =  0.0E+00
 Peak tails are ignored  where the intensity is below 0.0010 times the peak
   Aniso. broadening axis   0.0   0.0   1.0
;
_pd_proc_ls_prof_R_factor        0.0332
_pd_proc_ls_prof_wR_expected     0.0363
_pd_proc_ls_prof_wR_factor       0.0423
_pd_proc_number_of_points        1808
_pd_spec_mounting                ' ?'
_refine_ls_goodness_of_fit_all   1.18
_refine_ls_matrix_type           full
_refine_ls_number_parameters     32
_refine_ls_number_restraints     0
_refine_ls_R_Fsqd_factor         0.03928
_refine_ls_shift/su_max          0.02
_refine_ls_shift/su_mean         0.00
_reflns_d_resolution_high        0.844
_reflns_d_resolution_low         3.200
_reflns_limit_h_max              6
_reflns_limit_h_min              0
_reflns_limit_k_max              13
_reflns_limit_k_min              0
_reflns_limit_l_max              6
_reflns_limit_l_min              -6
_reflns_number_total             274
_cod_data_source_file            d1dt01981c1.cif
_cod_data_source_block           NDNBO4_HEATING_MONO_publ
_cod_depositor_comments
;
The following automatic conversions were performed:

data item '_geom_angle_publ_flag' value 'N' was changed to 'n' in
accordance with the
/home/data/users/saulius/crontab/automatic-downloads/rss-feeds/RSC/lib/dictionaries/cif_core.dic
dictionary named 'cif_core.dic' version 2.4.2 last updated on
2011-04-26 (40 times).

data item '_geom_bond_publ_flag' value 'N' was changed to 'n' in
accordance with the
/home/data/users/saulius/crontab/automatic-downloads/rss-feeds/RSC/lib/dictionaries/cif_core.dic
dictionary named 'cif_core.dic' version 2.4.2 last updated on
2011-04-26 (29 times).

Automatic conversion script
Id: cif_fix_values 7556 2019-12-06 15:28:31Z antanas 

 Adding full bibliography for 7707929--7707932.cif.
;
_cod_original_cell_volume        315.381(22)
_cod_database_code               7707931
_gsas_exptl_extinct_corr_t_min   1.00000
_gsas_exptl_extinct_corr_t_max   1.00000
loop_
_symmetry_equiv_pos_site_id
_symmetry_equiv_pos_as_xyz
1 +x,+y,+z
2 -x+1/2,+y,-z
-1 -x,-y,-z
-2 +x+1/2,-y,+z
101 +x+1/2,+y+1/2,+z+1/2
102 -x,+y+1/2,-z+1/2
-101 -x+1/2,-y+1/2,-z+1/2
-102 +x,-y+1/2,+z+1/2
loop_
_atom_site_type_symbol
_atom_site_label
_atom_site_fract_x
_atom_site_fract_y
_atom_site_fract_z
_atom_site_occupancy
_atom_site_thermal_displace_type
_atom_site_U_iso_or_equiv
_atom_site_symmetry_multiplicity
Nd Nd1 0.25 0.12050(20) 0.0 1.0 Uiso 0.0055(5) 4
Nb Nb1 0.25 0.64488(19) 0.0 1.0 Uiso 0.0084(6) 4
O- O1 0.0093(4) 0.71691(15) 0.2022(4) 1.0 Uiso 0.0101(5) 8
O- O2 0.9021(4) 0.45647(18) 0.2420(4) 1.0 Uiso 0.0093(5) 8
loop_
_atom_type_symbol
_atom_type_number_in_cell
_atom_type_scat_length_neutron
_atom_type_scat_source
Nd+3 4.0 0.7690 International_Tables_Vol_C
Nb+5 4.0 0.7054 International_Tables_Vol_C
O-2 16.0 0.5803 International_Tables_Vol_C
loop_
_geom_angle_atom_site_label_1
_geom_angle_atom_site_label_2
_geom_angle_atom_site_label_3
_geom_angle
_geom_angle_site_symmetry_1
_geom_angle_site_symmetry_2
_geom_angle_site_symmetry_3
_geom_angle_publ_flag
O1 Nd1 O1 85.36(11) -1_565 . -2_554 n
O1 Nd1 O1 75.42(9) -1_565 . 101_544 n
O1 Nd1 O1 65.96(6) -1_565 . 102_334 n
O1 Nd1 O2 122.21(7) -1_565 . 101_444 n
O1 Nd1 O2 124.95(7) -1_565 . 102_434 n
O1 Nd1 O2 153.90(11) -1_565 . -101_544 n
O1 Nd1 O2 68.58(7) -1_565 . -102_343 n
O1 Nd1 O1 65.96(6) -2_554 . 101_544 n
O1 Nd1 O1 75.42(9) -2_554 . 102_334 n
O1 Nd1 O2 124.95(7) -2_554 . 101_444 n
O1 Nd1 O2 122.21(7) -2_554 . 102_434 n
O1 Nd1 O2 68.58(7) -2_554 . -101_544 n
O1 Nd1 O2 153.90(11) -2_554 . -102_343 n
O1 Nd1 O1 126.73(12) 101_544 . 102_334 n
O1 Nd1 O2 75.93(8) 101_544 . 101_444 n
O1 Nd1 O2 156.56(10) 101_544 . 102_434 n
O1 Nd1 O2 91.97(7) 101_544 . -101_544 n
O1 Nd1 O2 106.89(7) 101_544 . -102_343 n
O1 Nd1 O2 156.56(10) 102_334 . 101_444 n
O1 Nd1 O2 75.93(8) 102_334 . 102_434 n
O1 Nd1 O2 106.89(7) 102_334 . -101_544 n
O1 Nd1 O2 91.97(7) 102_334 . -102_343 n
O2 Nd1 O2 82.46(12) 101_444 . 102_434 n
O2 Nd1 O2 74.88(9) 101_444 . -101_544 n
O2 Nd1 O2 73.49(7) 101_444 . -102_343 n
O2 Nd1 O2 73.49(7) 102_434 . -101_544 n
O2 Nd1 O2 74.88(9) 102_434 . -102_343 n
O2 Nd1 O2 137.51(15) -101_544 . -102_343 n
O1 Nb1 O1 129.97(16) 1_555 . 2_555 n
O1 Nb1 O2 109.68(9) 1_555 . -1_665 n
O1 Nb1 O2 100.88(9) 1_555 . -2_454 n
O1 Nb1 O2 100.88(9) 2_555 . -1_665 n
O1 Nb1 O2 109.68(9) 2_555 . -2_454 n
O2 Nb1 O2 103.18(18) -1_665 . -2_454 n
Nd1 O1 Nd1 104.58(9) -1_565 . 101_455 n
Nd1 O1 Nb1 118.44(10) -1_565 . 1_555 n
Nd1 O1 Nb1 127.74(11) 101_455 . 1_555 n
Nd1 O2 Nd1 105.12(9) 101_555 . -101_555 n
Nd1 O2 Nb1 132.73(11) 101_555 . -1_665 n
Nd1 O2 Nb1 116.54(12) -101_755 . -1_665 n
loop_
_geom_bond_atom_site_label_1
_geom_bond_atom_site_label_2
_geom_bond_distance
_geom_bond_site_symmetry_1
_geom_bond_site_symmetry_2
_geom_bond_publ_flag
Nd1 Nd1 3.8513(32) . -1_555 n
Nd1 Nd1 3.8513(32) . -1_655 n
Nd1 Nd1 3.8886(34) . -101_443 n
Nd1 Nd1 3.8886(34) . -101_444 n
Nd1 Nb1 3.61029(27) . 101_444 n
Nd1 Nb1 3.61029(27) . 101_545 n
Nd1 O1 2.4918(26) . -1_565 n
Nd1 O1 2.4918(26) . -2_565 n
Nd1 O1 2.4231(21) . 101_544 n
Nd1 O1 2.4231(21) . 102_545 n
Nd1 O2 2.4574(25) . 101_444 n
Nd1 O2 2.4574(25) . 102_645 n
Nd1 O2 2.3930(23) . -101_544 n
Nd1 O2 2.3930(23) . -102_343 n
Nb1 Nd1 3.61029(27) . 101_454 n
Nb1 Nd1 3.61029(27) . 101_555 n
Nb1 O1 1.9193(20) . 1_555 n
Nb1 O1 1.9193(20) . 2_555 n
Nb1 O1 2.4860(25) . -101_454 n
Nb1 O1 2.4860(25) . -102_453 n
Nb1 O2 1.8378(23) . -1_665 n
Nb1 O2 1.8378(23) . -2_465 n
O1 Nd1 2.4918(26) . -1_565 n
O1 Nd1 2.4231(21) . 101_455 n
O1 Nb1 1.9193(20) . 1_555 n
O1 Nb1 2.4860(25) . -101_454 n
O2 Nd1 2.4574(25) . 101_555 n
O2 Nd1 2.3930(23) . -101_544 n
O2 Nb1 1.8378(23) . -1_665 n
loop_
_pd_meas_counts_total
_pd_proc_ls_weight
_pd_proc_intensity_bkg_calc
_pd_calc_intensity_total
526.4 0.001907 521.02600 521.49866
494.9 0.002029 520.55121 520.98676
514.2 0.001941 520.08093 520.48346
518.5 0.001924 519.61517 519.98840
500.0 0.001993 519.15393 519.50092
498.7 0.002011 518.69727 519.02069
525.4 0.001907 518.24518 518.54736
539.9 0.001858 517.79767 518.08063
494.8 0.002029 517.35480 517.62036
535.5 0.001874 516.91650 517.16614
516.4 0.001941 516.48285 516.71802
545.0 0.001842 516.05383 516.27576
530.3 0.001890 515.62946 515.83917
498.5 0.002011 515.20978 515.40833
499.8 0.001993 514.79474 514.98297
504.1 0.001975 514.38434 514.56305
514.0 0.001941 513.97864 514.14850
517.5 0.001941 513.57764 513.73932
496.9 0.002011 513.18134 513.33539
562.1 0.001780 512.78973 512.93671
474.7 0.002104 512.40283 512.54321
501.0 0.001993 512.02063 512.15485
521.4 0.001924 511.64316 511.77158
509.0 0.001958 511.27039 511.39337
508.9 0.001958 510.90231 511.02026
510.0 0.001958 510.53897 510.53928
512.7 0.001958 510.18033 510.18063
538.1 0.001858 509.82642 509.82669
512.3 0.001958 509.47723 509.47751
508.1 0.001975 509.13272 509.13300
508.7 0.001958 508.79294 508.79321
486.8 0.002047 508.45789 508.45813
493.8 0.002029 508.12750 508.12778
521.8 0.001924 507.80185 507.80209
509.7 0.001958 507.48087 507.48114
507.4 0.001975 507.16458 507.16486
475.2 0.002104 506.85300 506.85324
482.8 0.002066 506.54608 506.54633
507.5 0.001975 506.24384 506.24411
513.1 0.001941 505.94626 505.94653
525.1 0.001907 505.65335 505.65359
492.5 0.002029 505.36508 505.36533
515.5 0.001941 505.08145 505.08170
513.6 0.001941 504.80246 504.80270
527.4 0.001890 504.52811 504.52835
516.8 0.001941 504.25836 504.25858
513.1 0.001941 503.99319 503.99344
533.8 0.001874 503.73264 503.73288
516.1 0.001941 503.47665 503.47687
547.3 0.001826 503.22525 503.22546
510.5 0.001958 502.97836 502.97861
490.6 0.002047 502.73605 502.73627
527.3 0.001890 502.49826 502.49847
490.3 0.002047 502.26498 502.26520
512.9 0.001958 502.03619 502.03644
477.5 0.002085 501.81192 501.81213
492.0 0.002029 501.59210 501.59232
486.6 0.002047 501.37674 501.37695
469.5 0.002124 501.16580 501.16602
510.2 0.001958 500.95929 500.95950
496.9 0.002011 500.75720 500.75742
504.3 0.001975 500.55951 500.55969
520.2 0.001924 500.36615 500.36636
482.6 0.002066 500.17719 500.17740
498.9 0.002011 499.99255 499.99274
486.5 0.002047 499.81223 499.81241
493.6 0.002029 499.63617 499.63638
492.6 0.002029 499.46445 499.46463
512.7 0.001958 499.29694 499.29715
479.8 0.002085 499.13370 499.13388
491.7 0.002029 498.97467 498.97485
507.9 0.001975 498.81985 498.82004
496.3 0.002011 498.66919 498.66937
481.4 0.002085 498.52271 498.52289
453.1 0.002204 498.38037 498.38055
471.4 0.002124 498.24213 498.24231
502.7 0.001993 498.10797 498.10815
501.7 0.001993 497.97791 497.97809
521.2 0.001924 497.85190 497.85205
475.5 0.002104 497.72989 497.73007
484.5 0.002066 497.61191 497.61206
502.4 0.001993 497.49789 497.49805
478.6 0.002085 497.38782 497.38800
497.3 0.002011 497.28171 497.28186
492.0 0.002029 497.17950 497.17966
506.9 0.001975 497.08118 497.08133
511.8 0.001958 496.98669 496.98685
493.6 0.002029 496.89606 496.89621
504.5 0.001975 496.80923 496.80939
518.0 0.001924 496.72620 496.72635
497.4 0.002011 496.64691 496.64706
504.9 0.001975 496.57138 498.57004
514.7 0.001941 496.49954 498.59555
509.0 0.001958 496.43140 498.63202
504.6 0.001975 496.36688 498.68015
520.3 0.001924 496.30603 498.74078
495.5 0.002011 496.24878 498.81488
501.9 0.001993 496.19510 498.90347
542.2 0.001842 496.14496 499.00775
519.9 0.001924 496.09836 499.12915
519.3 0.001924 496.05527 499.26926
498.3 0.002011 496.01563 499.42996
521.6 0.001924 495.97943 499.61343
501.2 0.001993 495.94666 499.82224
502.9 0.001993 495.91724 500.05930
489.6 0.002047 495.89120 500.32819
519.3 0.001924 495.86850 500.63300
477.1 0.002104 495.84912 500.99121
483.6 0.002066 495.83301 501.38446
509.3 0.001958 495.82013 501.83185
497.2 0.002011 495.81046 502.34207
510.2 0.001958 495.80399 502.92599
517.4 0.001941 495.80069 503.59689
532.3 0.001874 495.80051 504.37177
544.1 0.001842 495.80344 505.27304
571.6 0.001751 495.80945 506.33276
521.5 0.001924 495.81851 507.60324
520.2 0.001924 495.83057 510.86069
520.2 0.001924 495.84561 513.02856
528.5 0.001890 495.86365 516.12250
509.0 0.001958 495.88458 520.96924
527.2 0.001890 495.90842 529.11768
596.1 0.001680 495.93512 543.25018
566.0 0.001765 495.96469 567.65466
609.1 0.001639 495.99704 608.67004
629.9 0.001587 496.03220 674.97437
718.6 0.001392 496.07007 777.44720
942.4 0.001061 496.11069 928.09210
1205.2 0.000831 496.15402 1137.26416
1445.5 0.000693 496.19998 1408.54761
1782.9 0.000562 496.24860 1731.61963
2099.5 0.000477 496.29977 2075.65820
2366.6 0.000423 496.35358 2388.11572
2565.4 0.000389 496.40988 2603.27661
2642.9 0.000379 496.46872 2661.44971
2523.6 0.000397 496.53003 2535.11523
2320.4 0.000430 496.59381 2249.44702
1899.7 0.000526 496.65997 1874.31689
1505.6 0.000664 496.72858 1489.85437
1175.2 0.000850 496.79950 1156.91431
906.7 0.001104 496.87277 905.58136
711.0 0.001403 496.94836 737.75171
647.9 0.001538 497.02621 637.78033
615.8 0.001626 497.10629 584.44507
595.1 0.001680 497.18860 559.19543
571.4 0.001751 497.27310 549.40533
610.3 0.001639 497.35974 548.16223
563.4 0.001780 497.44849 552.79236
572.7 0.001751 497.53934 563.59753
551.4 0.001811 497.63223 583.31299
589.2 0.001694 497.72720 617.16534
659.7 0.001514 497.82413 673.12897
752.9 0.001332 497.92307 761.78223
880.4 0.001134 498.02393 894.90619
1129.0 0.000886 498.12668 1082.05432
1377.9 0.000727 498.23135 1324.90295
1613.4 0.000619 498.33786 1610.37830
1946.7 0.000514 498.44617 1905.53479
2142.2 0.000466 498.55630 2158.76929
2241.5 0.000447 498.66818 2310.64355
2253.8 0.000443 498.78180 2313.87622
2023.5 0.000494 498.89713 2157.44580
1799.8 0.000556 499.01413 1878.91016
1558.7 0.000641 499.13278 1546.76929
1210.1 0.000826 499.25305 1227.80017
951.3 0.001054 499.37491 966.11951
793.5 0.001257 499.49832 778.08936
674.5 0.001479 499.62326 658.06927
585.9 0.001708 499.74969 589.14624
599.4 0.001666 499.87759 552.89917
526.6 0.001907 500.00696 534.88995
543.3 0.001842 500.13773 525.96057
521.7 0.001924 500.26987 521.18646
551.8 0.001811 500.40338 518.25299
508.4 0.001975 500.53824 516.18188
506.5 0.001975 500.67435 514.58057
496.6 0.002011 500.81177 511.29089
513.7 0.001941 500.95041 510.31097
509.8 0.001958 501.09027 509.50253
512.7 0.001958 501.23132 508.83234
522.1 0.001924 501.37350 508.27545
520.6 0.001924 501.51685 507.81247
487.2 0.002047 501.66129 507.42838
487.9 0.002047 501.80679 507.11157
481.7 0.002085 501.95334 506.85367
499.7 0.001993 502.10092 506.64978
526.1 0.001907 502.24948 506.49850
494.2 0.002029 502.39902 506.40305
525.4 0.001907 502.54950 506.37122
526.2 0.001907 502.70087 506.41501
508.1 0.001975 502.85312 506.54764
494.9 0.002029 503.00626 506.77768
530.4 0.001890 503.16019 507.08722
521.5 0.001924 503.31494 507.47256
508.1 0.001975 503.47046 507.86267
490.7 0.002029 503.62674 508.17807
510.7 0.001958 503.78372 508.33847
488.3 0.002047 503.94141 508.29544
488.1 0.002047 504.09979 508.06290
496.7 0.002011 504.25879 507.71646
467.2 0.002143 504.41843 507.35233
493.6 0.002029 504.57864 507.04742
478.9 0.002085 504.73944 505.20532
484.9 0.002066 504.90076 505.17801
501.6 0.001993 505.06262 505.23450
482.0 0.002066 505.22495 505.35300
511.0 0.001958 505.38776 505.62701
470.6 0.002124 505.55103 505.83362
516.0 0.001941 505.71469 506.07693
524.0 0.001907 505.87875 506.35849
515.3 0.001941 506.04318 506.67587
534.0 0.001874 506.20795 507.01691
532.2 0.001874 506.37305 507.35663
495.3 0.002011 506.53845 507.66031
477.7 0.002085 506.70410 507.89240
491.3 0.002029 506.87003 508.03131
512.1 0.001958 507.03616 508.08374
524.5 0.001907 507.20248 508.08365
504.9 0.001975 507.36902 508.07419
515.7 0.001941 507.53568 508.08963
511.5 0.001958 507.70248 508.14731
498.2 0.002011 507.86938 508.24918
497.1 0.002011 508.03638 508.38727
504.5 0.001975 508.20343 508.55078
471.0 0.002124 508.37054 508.73044
494.7 0.002029 508.53766 508.92023
514.1 0.001941 508.70477 509.11716
490.0 0.002047 508.87186 509.32016
478.3 0.002085 509.03891 509.52948
509.7 0.001958 509.20590 509.74603
531.9 0.001874 509.37277 509.97119
534.4 0.001874 509.53955 510.20703
504.3 0.001975 509.70621 510.63568
503.7 0.001993 509.87268 510.91373
508.6 0.001958 510.03900 511.22336
532.9 0.001874 510.20511 511.59045
492.3 0.002029 510.37103 512.07153
469.8 0.002124 510.53668 512.78577
521.5 0.001924 510.70209 514.29498
501.7 0.001993 510.86725 516.35999
579.0 0.001722 511.03207 519.95074
522.3 0.001907 511.19659 525.97412
563.4 0.001780 511.36078 535.49188
507.8 0.001975 511.52463 549.39520
557.2 0.001795 511.68808 567.83716
576.9 0.001736 511.85117 589.57422
593.3 0.001680 512.01379 611.57935
572.9 0.001751 512.17603 629.34924
637.4 0.001575 512.33783 638.11261
624.7 0.001600 512.49915 634.79449
607.7 0.001639 512.65991 619.98328
593.1 0.001680 512.82025 598.00604
554.6 0.001795 512.98004 574.49341
543.6 0.001842 513.13934 553.90759
529.8 0.001890 513.29803 538.50977
493.0 0.002029 513.45618 528.49792
465.0 0.002143 513.61371 522.80176
496.9 0.002011 513.77063 519.97778
490.8 0.002029 513.92694 518.80499
480.3 0.002085 514.08258 518.48151
465.3 0.002143 514.23761 518.58130
459.9 0.002184 514.39191 519.24792
504.9 0.001975 514.54559 519.84503
500.9 0.001993 514.69849 520.82397
530.8 0.001890 514.85071 522.43036
513.2 0.001941 515.00220 525.27295
545.4 0.001826 515.15289 530.35260
548.6 0.001826 515.30286 539.19006
531.7 0.001874 515.45203 553.77661
562.3 0.001780 515.60040 576.21082
609.3 0.001639 515.74792 607.93030
648.2 0.001538 515.89465 648.72198
686.7 0.001457 516.04053 696.06384
727.0 0.001372 516.18555 745.44843
756.2 0.001322 516.32971 791.89990
808.1 0.001240 516.47296 832.21027
882.6 0.001134 516.61536 866.71533
890.6 0.001126 516.75677 898.66547
919.1 0.001089 516.89734 927.38214
932.5 0.001075 517.03693 945.14087
958.9 0.001041 517.17554 941.98077
914.2 0.001096 517.31323 909.52313
803.1 0.001249 517.44995 849.37958
763.1 0.0 517.58563 .
676.1 0.0 517.72034 .
676.5 0.0 517.85400 .
673.8 0.0 517.98669 .
677.0 0.0 518.11829 .
739.8 0.0 518.24890 .
868.6 0.0 518.37836 .
953.8 0.0 518.50684 .
1093.2 0.0 518.63416 .
1222.1 0.0 518.76044 .
1237.9 0.0 518.88556 .
1125.8 0.0 519.00958 .
987.7 0.0 519.13251 .
821.0 0.0 519.25427 .
724.6 0.0 519.37488 .
726.9 0.0 519.49432 .
724.4 0.001382 519.61261 675.22614
750.8 0.001332 519.72974 743.15186
863.2 0.001157 519.84564 817.57990
890.9 0.001126 519.96039 884.69104
941.2 0.001061 520.07391 927.66101
957.4 0.001047 520.18622 933.06287
920.5 0.001089 520.29730 898.46857
855.5 0.001173 520.40717 835.10291
762.3 0.001313 520.51575 761.27777
662.5 0.001514 520.62311 693.89728
641.0 0.001562 520.72919 644.18109
691.1 0.001446 520.83405 617.77863
607.5 0.001652 520.93762 618.17255
672.9 0.001491 521.03992 651.18036
745.3 0.001342 521.14087 728.04462
894.0 0.001119 521.24060 864.90417
1184.3 0.000845 521.33899 1076.90930
1493.7 0.000671 521.43610 1366.82825
1840.8 0.000543 521.53186 1711.65417
2228.5 0.000449 521.62628 2056.36694
2306.2 0.000434 521.71942 2320.53223
2361.1 0.000423 521.81116 2424.14600
2194.7 0.000457 521.90161 2325.56934
1974.2 0.000507 521.99072 2052.73828
1659.6 0.000604 522.07843 1689.73853
1296.7 0.000772 522.16479 1328.81921
982.8 0.001014 522.24982 1032.30481
768.0 0.001303 522.33344 824.12183
672.9 0.001491 522.41571 697.63281
635.2 0.001575 522.49658 631.84344
600.8 0.001666 522.57605 606.04022
595.9 0.001680 522.65417 608.02551
640.8 0.001562 522.73083 636.61285
659.6 0.001514 522.80615 700.92505
794.0 0.001257 522.88007 817.54169
1035.9 0.000964 522.95251 1004.36340
1350.6 0.000738 523.02362 1269.84912
1666.5 0.000601 523.09326 1599.46289
1969.7 0.000507 523.16150 1946.31946
2216.4 0.000451 523.22827 2234.98853
2310.2 0.000432 523.29364 2382.90186
2310.8 0.000432 523.35760 2336.75781
2101.3 0.000477 523.42010 2108.14160
1770.7 0.000564 523.48114 1770.07251
1417.1 0.000707 523.54077 1412.27002
1031.8 0.000970 523.59900 1102.65112
828.4 0.001206 523.65570 872.72345
702.6 0.001424 523.71100 722.76904
621.8 0.001613 523.76483 635.68768
560.4 0.001780 523.81726 589.55194
568.9 0.001751 523.86816 566.23914
570.8 0.001751 523.91766 554.57947
538.4 0.001858 523.96564 548.37164
535.0 0.001874 524.01221 544.63751
532.8 0.001874 524.05731 542.07233
566.1 0.001765 524.10089 540.13110
552.0 0.001811 524.14307 538.58124
581.3 0.001722 524.18378 537.31134
528.5 0.001890 524.22302 536.25793
566.1 0.001765 524.26074 535.37903
540.1 0.001858 524.29706 534.64417
553.6 0.001811 524.33191 534.03046
544.8 0.001842 524.36523 533.52045
545.7 0.001826 524.39716 532.40076
524.5 0.001907 524.42755 531.22455
577.2 0.001736 524.45648 531.03699
590.9 0.001694 524.48401 530.90564
528.8 0.001890 524.51001 530.83740
569.4 0.001751 524.53455 530.83264
552.4 0.001811 524.55762 530.89423
573.3 0.001751 524.57922 531.02863
523.9 0.001907 524.59937 531.24762
501.6 0.001993 524.61804 531.57477
529.8 0.001890 524.63525 532.06024
518.8 0.001924 524.65100 532.81677
568.6 0.001765 524.66528 534.09357
547.8 0.001826 524.67810 536.40771
515.3 0.001941 524.68945 540.74152
538.1 0.001858 524.69934 548.76715
567.8 0.001765 524.70782 562.99103
559.6 0.001780 524.71478 586.83710
628.9 0.001587 524.72034 623.24878
726.2 0.001382 524.72443 674.79919
774.3 0.001294 524.72711 739.96997
887.4 0.001126 524.72827 817.95355
925.9 0.001082 524.72803 899.32721
1068.9 0.000935 524.72638 973.67926
1113.1 0.000896 524.72327 1030.64880
1101.9 0.000907 524.71869 1061.66333
1124.3 0.000891 524.71271 1065.42249
1129.9 0.000886 524.70526 1040.73450
1028.8 0.000970 524.69641 992.57751
937.4 0.001068 524.68616 923.66394
895.4 0.001119 524.67450 840.74670
813.9 0.001231 524.66138 757.18646
681.1 0.001468 524.64685 682.26129
638.2 0.001562 524.63092 624.37476
629.0 0.001587 524.61359 584.99103
555.0 0.001795 524.59485 561.29077
562.6 0.001780 524.57477 548.60431
575.6 0.001736 524.55322 543.16309
570.5 0.001751 524.53033 540.73523
553.5 0.001811 524.50604 540.23779
551.2 0.001811 524.48035 540.92987
592.8 0.001694 524.45331 542.48914
592.4 0.001694 524.42487 544.63721
591.2 0.001694 524.39508 546.95477
565.8 0.001765 524.36389 548.88782
567.8 0.001765 524.33142 549.92651
547.7 0.001826 524.29755 549.88464
525.4 0.001907 524.26233 549.08466
531.4 0.001874 524.22577 548.20496
564.6 0.001765 524.18787 548.00488
558.9 0.001795 524.14868 549.27625
551.7 0.001811 524.10809 553.06061
576.4 0.001736 524.06622 563.13904
581.6 0.001722 524.02307 577.91333
629.6 0.001587 523.97858 602.52899
671.1 0.001491 523.93274 639.47058
704.3 0.001424 523.88562 688.53339
754.5 0.001322 523.83728 745.04749
840.7 0.001189 523.78760 800.34003
848.5 0.001181 523.73663 846.03546
886.9 0.001126 523.68439 882.21747
920.3 0.001089 523.63086 926.58807
940.7 0.001061 523.57611 1015.92828
1136.6 0.000881 523.52008 1193.87561
1572.5 0.000634 523.46283 1490.34253
2050.6 0.000487 523.40430 1899.89050
2538.8 0.000394 523.34454 2367.82104
2895.8 0.0003455 523.28357 2798.66895
3066.1 0.0003258 523.22137 3092.38696
3237.4 0.0003089 523.15796 3196.00464
3212.2 0.0003111 523.09332 3144.34692
3210.1 0.0003111 523.02753 3027.84131
3073.6 0.0003258 522.96051 2913.65283
2816.7 0.000355 522.89227 2805.11475
2630.3 0.000380 522.82288 2663.55859
2512.1 0.000398 522.75232 2463.05420
2375.5 0.000422 522.68054 2225.88184
2136.2 0.000469 522.60767 1996.22180
1856.3 0.000538 522.53363 1797.27063
1589.4 0.000628 522.45844 1619.74695
1338.8 0.000747 522.38214 1439.80286
1223.8 0.000816 522.30469 1248.47314
1018.1 0.000983 522.22607 1060.31775
883.1 0.001134 522.14642 898.23346
749.7 0.001332 522.06561 779.58228
683.1 0.001468 521.98370 712.50708
709.1 0.001413 521.90070 700.94965
747.3 0.001342 521.81665 753.78516
895.2 0.001119 521.73151 890.82129
1066.6 0.000935 521.64532 1138.73083
1440.7 0.000693 521.55804 1513.91858
1844.8 0.000541 521.46973 1996.44141
2365.3 0.000423 521.38037 2509.69775
2919.3 0.0003429 521.28998 2925.68457
3055.4 0.0003270 521.19855 3106.53320
3029.9 0.0003306 521.10608 2975.92554
2549.4 0.000392 521.01263 2578.78564
2053.1 0.000487 520.91821 2054.83691
1485.7 0.000675 520.82275 1545.12817
1055.6 0.000947 520.72638 1141.11682
796.7 0.001257 520.62897 869.26086
671.8 0.001491 520.53058 710.59644
630.4 0.001587 520.43127 628.15051
603.9 0.001652 520.33099 588.77441
596.7 0.001680 520.22980 570.06500
559.6 0.001780 520.12769 560.31421
562.5 0.001780 520.02460 554.34637
540.9 0.001842 519.92065 550.15137
539.9 0.001858 519.81573 546.98535
550.0 0.001811 519.70996 544.56250
571.7 0.001751 519.60333 542.80585
538.1 0.001858 519.49579 540.03290
555.6 0.001795 519.38739 540.32880
531.9 0.001874 519.27808 542.59161
584.1 0.001708 519.16797 547.97052
576.9 0.001736 519.05701 557.64771
564.0 0.001780 518.94525 570.74139
619.8 0.001613 518.83264 588.78937
583.9 0.001708 518.71918 606.92737
624.7 0.001600 518.60498 620.04382
653.2 0.001526 518.48993 623.34943
625.6 0.001600 518.37408 615.25421
571.8 0.001751 518.25751 598.26508
578.5 0.001722 518.14014 579.17114
568.8 0.001765 518.02203 562.20093
547.2 0.001826 517.90320 549.93396
550.8 0.001811 517.78357 542.74237
537.5 0.001858 517.66321 539.72723
516.4 0.001941 517.54218 539.86072
524.9 0.001907 517.42041 542.95294
508.9 0.001958 517.29791 550.60449
530.1 0.001890 517.17480 567.56219
642.3 0.001562 517.05090 603.50665
669.6 0.001491 516.92639 674.15973
813.3 0.001231 516.80121 799.15173
1042.0 0.000959 516.67542 993.84973
1331.4 0.000751 516.54895 1255.34827
1561.2 0.000641 516.42181 1547.02283
1825.7 0.000548 516.29407 1805.32690
1905.3 0.000526 516.16571 1946.78186
1910.5 0.000524 516.03674 1916.41687
1739.7 0.000575 515.90723 1724.76770
1502.9 0.000664 515.77704 1442.47241
1180.3 0.000845 515.64636 1151.62549
826.5 0.001214 515.51508 910.08496
688.2 0.001457 515.38324 740.46667
566.2 0.001765 515.25079 637.11835
543.8 0.001842 515.11786 581.23468
535.8 0.001874 514.98444 553.58167
548.7 0.001826 514.85046 540.39600
519.7 0.001924 514.71594 533.82343
527.0 0.001890 514.58099 530.08618
529.6 0.001890 514.44550 528.05853
510.6 0.001958 514.30957 526.26270
537.3 0.001858 514.17310 524.77832
498.0 0.002011 514.03625 523.55420
520.3 0.001924 513.89886 522.52820
506.8 0.001975 513.76111 521.65955
531.7 0.001874 513.62286 520.91846
526.2 0.001907 513.48425 520.28320
512.4 0.001958 513.34521 520.76221
523.2 0.001907 513.20575 520.34247
517.5 0.001941 513.06592 519.91797
516.5 0.001941 512.92566 519.66498
550.5 0.001811 512.78510 519.44702
506.8 0.001975 512.64410 519.28827
560.0 0.001780 512.50281 519.18878
537.2 0.001858 512.36115 519.48248
531.5 0.001874 512.21912 519.52771
513.5 0.001941 512.07678 519.64966
520.4 0.001924 511.93414 519.86414
511.4 0.001958 511.79120 520.20477
558.2 0.001795 511.64795 520.75458
513.2 0.001941 511.50443 521.72754
518.9 0.001924 511.36060 523.64380
513.9 0.001941 511.21652 527.62177
536.7 0.001858 511.07217 535.70013
541.6 0.001842 510.92758 550.87079
577.4 0.001736 510.78275 576.30280
610.4 0.001639 510.63770 613.42627
706.5 0.001413 510.49240 659.38586
740.5 0.001352 510.34692 705.82819
741.3 0.001352 510.20120 738.01306
682.8 0.001468 510.05533 746.50708
732.7 0.001362 509.90924 727.34308
714.4 0.001403 509.76300 689.87109
699.5 0.001435 509.61658 650.71161
624.7 0.001600 509.47000 625.95587
576.8 0.001736 509.32327 628.60846
644.3 0.001550 509.17642 668.14148
744.2 0.001342 509.02945 749.02814
918.4 0.001089 508.88232 866.49927
1052.1 0.000953 508.73511 1001.64667
1139.5 0.000875 508.58780 1121.65967
1127.0 0.000886 508.44040 1190.54199
1102.5 0.000907 508.29291 1190.79919
1004.7 0.000995 508.14532 1143.28210
1095.5 0.000913 507.99771 1100.94617
1173.0 0.000855 507.85001 1120.37793
1301.1 0.000767 507.70227 1233.75659
1530.3 0.000654 507.55450 1430.39465
1746.2 0.000572 507.40671 1653.84839
1871.3 0.000533 507.25888 1820.27051
1955.7 0.000512 507.11105 1857.84363
1884.3 0.000531 506.96323 1753.93823
1640.8 0.000610 506.81540 1565.58411
1397.9 0.000715 506.66757 1370.97229
1194.4 0.000835 506.51978 1220.73328
1093.7 0.000913 506.37204 1122.79077
1063.3 0.000941 506.22430 1051.71887
899.1 0.001111 506.07663 976.05365
878.7 0.001141 505.92902 883.53699
739.9 0.001352 505.78149 784.32043
693.1 0.001446 505.63400 695.27234
596.0 0.001680 505.48663 628.28864
626.7 0.001600 505.33932 587.10315
544.2 0.001842 505.19214 570.12115
555.5 0.001795 505.04504 575.37152
597.0 0.001680 504.89807 603.58276
609.9 0.001639 504.75122 657.38232
716.4 0.001392 504.60452 737.15625
793.4 0.001257 504.45795 836.12720
957.2 0.001047 504.31152 938.10748
998.3 0.001001 504.16525 1020.64471
1043.9 0.000959 504.01913 1064.41968
1040.9 0.000959 503.87323 1063.43250
981.2 0.001021 503.72748 1023.80927
943.1 0.001061 503.58191 953.44189
796.1 0.001257 503.43655 862.72040
744.1 0.001342 503.29138 767.17035
645.2 0.001550 503.14645 682.10529
600.8 0.001666 503.00174 616.63281
580.6 0.001722 502.85724 572.70667
528.9 0.001890 502.71298 546.98962
509.2 0.001958 502.56897 533.81384
489.6 0.002047 502.42520 527.82373
532.4 0.001874 502.28168 525.26825
504.8 0.001975 502.13843 523.86469
528.5 0.001890 501.99545 524.22791
538.3 0.001858 501.85278 527.18408
543.7 0.001842 501.71036 535.63007
534.1 0.001874 501.56827 555.26556
544.9 0.001842 501.42645 594.84924
680.6 0.001468 501.28494 663.80426
788.6 0.001266 501.14377 769.12805
990.1 0.001008 501.00290 905.53070
1087.1 0.000918 500.86240 1054.06287
1162.8 0.000860 500.72220 1177.37769
1200.9 0.000831 500.58234 1237.32874
1245.8 0.000803 500.44284 1216.10425
1179.0 0.000850 500.30371 1127.06445
1076.7 0.000930 500.16492 1006.33948
932.3 0.001075 500.02652 885.59259
824.7 0.001214 499.88849 781.71466
736.8 0.001362 499.75085 698.16602
643.7 0.001550 499.61359 634.24066
584.0 0.001708 499.47675 587.23035
567.9 0.001765 499.34027 554.80359
529.8 0.001890 499.20422 534.10687
526.9 0.001890 499.06860 521.99713
502.1 0.001993 498.93338 515.43317
505.1 0.001975 498.79861 512.00909
473.2 0.002104 498.66428 510.17657
516.3 0.001941 498.53036 509.30115
501.0 0.001993 498.39691 508.63135
531.1 0.001890 498.26389 508.19888
554.0 0.001811 498.13135 507.63596
540.5 0.001858 497.99927 507.56717
507.1 0.001975 497.86765 507.68176
489.9 0.002047 497.73651 507.80804
488.8 0.002047 497.60587 508.55255
491.9 0.002029 497.47568 509.91003
535.6 0.001874 497.34601 512.22211
541.6 0.001842 497.21683 515.86487
515.7 0.001941 497.08813 521.13812
519.5 0.001924 496.95996 528.28601
545.4 0.001826 496.83231 537.93640
521.6 0.001924 496.70517 552.16180
559.7 0.001780 496.57855 575.90570
625.1 0.001600 496.45248 617.54791
676.3 0.001479 496.32693 686.38776
779.7 0.001285 496.20190 786.75140
844.9 0.001181 496.07745 910.78070
969.0 0.001034 495.95352 1035.45020
1052.0 0.000953 495.83017 1129.23059
1170.6 0.000855 495.70737 1168.03503
1118.7 0.000896 495.58511 1154.13220
1109.6 0.000902 495.46344 1120.74194
1148.0 0.000870 495.34235 1109.84778
1167.9 0.000855 495.22180 1142.16223
1173.2 0.000850 495.10187 1203.59082
1199.6 0.000835 494.98251 1253.86719
1164.1 0.000860 494.86374 1253.23560
1139.4 0.000875 494.74557 1193.77576
1094.3 0.000913 494.62799 1105.23694
1036.8 0.000964 494.51102 1024.37366
962.8 0.001041 494.39465 968.75922
957.6 0.001047 494.27890 930.65601
887.9 0.001126 494.16376 890.11426
845.0 0.001181 494.04922 836.47253
807.0 0.001240 493.93533 778.44501
761.3 0.001313 493.82205 733.72491
736.2 0.001362 493.70941 714.79053
740.0 0.001352 493.59738 721.16595
716.6 0.001392 493.48602 739.17468
721.0 0.001382 493.37527 748.65973
724.7 0.001382 493.26520 734.40582
635.6 0.001575 493.15576 695.93365
601.3 0.001666 493.04697 645.22827
584.4 0.001708 492.93881 596.15558
550.3 0.001811 492.83133 557.61920
492.5 0.002029 492.72452 532.12207
532.1 0.001874 492.61835 517.62360
538.0 0.001858 492.51285 510.48672
517.5 0.001941 492.40802 507.66248
509.2 0.001958 492.30386 507.61743
512.6 0.001958 492.20038 510.55243
511.6 0.001958 492.09760 518.53046
529.5 0.001890 491.99545 535.52429
561.3 0.001780 491.89401 566.70178
626.7 0.001600 491.79327 616.08868
698.2 0.001435 491.69321 682.75732
810.9 0.001231 491.59381 757.10211
847.8 0.001181 491.49512 821.07318
892.3 0.001119 491.39713 852.09882
866.8 0.001157 491.29984 837.94385
767.9 0.001303 491.20325 783.84546
753.3 0.001332 491.10736 709.88806
655.6 0.001526 491.01215 636.92242
586.0 0.001708 490.91766 579.32172
531.0 0.001890 490.82388 540.68597
539.9 0.001858 490.73080 518.25281
538.9 0.001858 490.63846 506.69211
497.1 0.002011 490.54678 501.17111
502.1 0.001993 490.45584 497.98434
507.5 0.001975 490.36563 496.62390
512.0 0.001958 490.27612 495.78226
521.5 0.001924 490.18735 495.18030
530.5 0.001890 490.09927 494.72034
508.3 0.001975 490.01193 494.35126
513.0 0.001941 489.92529 493.79047
484.8 0.002066 489.83939 493.94788
508.9 0.001958 489.75421 493.80106
508.3 0.001975 489.66977 493.70459
487.1 0.002047 489.58603 493.65616
509.0 0.001958 489.50302 493.65518
497.1 0.002011 489.42075 493.71735
497.7 0.002011 489.33920 493.81842
505.3 0.001975 489.25839 493.78995
489.5 0.002047 489.17831 494.02432
498.3 0.002011 489.09897 494.33636
502.3 0.001993 489.02036 494.74258
472.0 0.002124 488.94247 495.26617
517.8 0.001924 488.86530 495.94327
493.1 0.002029 488.78888 496.84131
509.1 0.001958 488.71320 498.11877
511.8 0.001958 488.63824 500.19730
491.1 0.002029 488.56403 504.17984
477.3 0.002104 488.49054 513.02020
486.8 0.002047 488.41776 531.17523
554.2 0.001811 488.34573 567.36652
618.5 0.001613 488.27448 631.71997
629.1 0.001587 488.20392 731.07666
776.9 0.001285 488.13409 861.10492
929.2 0.001075 488.06500 1000.33984
1063.9 0.000941 487.99664 1109.63074
1104.7 0.000907 487.92902 1148.38416
1089.4 0.000918 487.86212 1099.02014
960.3 0.001041 487.79596 983.23242
785.7 0.001276 487.73053 843.59265
685.8 0.001457 487.66583 717.33344
593.5 0.001680 487.60187 624.08209
522.5 0.001907 487.53864 566.14551
553.0 0.001811 487.47614 535.55542
537.0 0.001858 487.41434 522.10107
551.7 0.001811 487.35330 518.41425
563.0 0.001780 487.29297 521.78558
497.2 0.002011 487.23337 534.08850
525.8 0.001907 487.17447 560.70612
565.8 0.001765 487.11630 608.23926
622.9 0.001600 487.05887 680.26184
715.8 0.001392 487.00217 771.85956
797.3 0.001257 486.94617 866.01251
890.4 0.001126 486.89087 935.50952
973.9 0.001027 486.83630 953.66925
920.3 0.001089 486.78247 912.62622
825.5 0.001214 486.72931 830.71387
749.3 0.001332 486.67688 737.20721
631.1 0.001587 486.62518 654.39154
562.0 0.001780 486.57416 593.14941
561.6 0.001780 486.52386 553.91150
528.7 0.001890 486.47427 531.98328
537.9 0.001858 486.42538 522.35876
527.6 0.001890 486.37717 522.66107
544.9 0.001842 486.32968 534.21167
520.3 0.001924 486.28287 561.65283
600.1 0.001666 486.23679 610.86243
679.5 0.001468 486.19138 684.82684
802.5 0.001249 486.14664 778.62280
887.6 0.001126 486.10260 877.21118
932.2 0.001075 486.05927 958.94556
969.7 0.001034 486.01660 1007.11829
1045.0 0.000959 485.97461 1024.91919
1050.2 0.000953 485.93332 1033.71057
1055.5 0.000947 485.89270 1050.48645
994.6 0.001008 485.85275 1071.00757
1024.2 0.000977 485.81345 1071.17859
990.0 0.001008 485.77484 1026.21411
937.9 0.001068 485.73691 934.42090
879.3 0.001134 485.69962 819.92487
809.9 0.001231 485.66299 709.83459
666.7 0.001502 485.62704 622.65686
571.4 0.001751 485.59174 564.18878
536.4 0.001858 485.55707 530.07104
507.2 0.001975 485.52307 512.56299
532.4 0.001874 485.48972 504.20160
543.1 0.001842 485.45697 500.31668
521.0 0.001924 485.42490 498.41934
512.1 0.001958 485.39346 497.45096
500.7 0.001993 485.36264 497.06094
516.6 0.001941 485.33249 497.30869
521.4 0.001924 485.30292 498.70215
496.6 0.002011 485.27399 502.54477
511.0 0.001958 485.24570 512.46985
522.8 0.001907 485.21799 531.31769
512.8 0.001958 485.19092 563.76648
600.3 0.001666 485.16446 613.21466
634.6 0.001575 485.13858 678.00555
711.5 0.001403 485.11334 746.70197
780.0 0.001285 485.08868 800.36353
819.2 0.001223 485.06461 818.88947
790.3 0.001266 485.04114 794.01215
766.9 0.001303 485.01825 736.89429
703.2 0.001424 484.99597 668.71887
624.2 0.001600 484.97424 607.92676
591.1 0.001694 484.95309 564.46466
574.8 0.001736 484.93253 539.97394
532.3 0.001874 484.91254 529.42322
535.6 0.001874 484.89310 526.79877
541.5 0.001842 484.87424 526.37799
539.5 0.001858 484.85590 524.50336
530.4 0.001890 484.83813 520.23535
545.7 0.001826 484.82092 514.63983
552.2 0.001811 484.80426 508.91602
515.4 0.001941 484.78812 504.97943
530.0 0.001890 484.77252 503.02002
500.9 0.001993 484.75745 503.35159
544.9 0.001842 484.74292 506.61060
529.8 0.001890 484.72891 514.30396
523.1 0.001907 484.71539 528.52002
564.6 0.001765 484.70242 553.05347
633.0 0.001575 484.68994 589.18976
669.6 0.001491 484.67798 635.46967
716.4 0.001392 484.66650 685.74042
745.8 0.001342 484.65555 729.56805
735.4 0.001362 484.64505 756.32532
739.9 0.001352 484.63507 761.80377
732.4 0.001362 484.62555 751.07019
719.3 0.001392 484.61652 738.94525
722.8 0.001382 484.60794 751.35400
739.7 0.001352 484.59985 821.98920
861.1 0.001165 484.59222 983.18500
1097.0 0.000913 484.58505 1250.92529
1528.3 0.000654 484.57834 1605.94250
1935.0 0.000517 484.57205 1981.18567
2263.2 0.000441 484.56622 2269.17188
2308.5 0.000434 484.56085 2361.89185
2271.2 0.000440 484.55588 2218.37622
1902.3 0.000526 484.55136 1898.39001
1562.9 0.000641 484.54727 1512.02014
1208.5 0.000826 484.54358 1159.27563
929.1 0.001075 484.54031 896.21649
789.5 0.001266 484.53745 735.54797
712.0 0.001403 484.53500 664.42480
713.5 0.001403 484.53296 661.01929
713.1 0.001403 484.53128 704.61493
777.6 0.001285 484.53000 774.80524
858.0 0.001165 484.52911 847.79431
892.6 0.001119 484.52859 896.73633
903.1 0.001104 484.52847 899.07489
869.7 0.001149 484.52869 852.26166
775.3 0.001294 484.52927 774.46368
689.9 0.001446 484.53024 690.14001
647.6 0.001550 484.53152 617.78833
573.0 0.001751 484.53317 565.66248
558.6 0.001795 484.53516 533.25708
534.2 0.001874 484.53748 515.61938
493.0 0.002029 484.54013 506.93091
535.5 0.001874 484.54312 502.63806
523.1 0.001907 484.54642 500.72461
560.5 0.001780 484.55002 499.55469
510.4 0.001958 484.55392 498.86307
524.5 0.001907 484.55817 498.46814
516.7 0.001941 484.56268 498.30630
497.7 0.002011 484.56750 498.35913
511.6 0.001958 484.57260 498.62924
515.1 0.001941 484.57797 499.13657
520.3 0.001924 484.58365 499.78787
544.2 0.001842 484.58957 500.96494
520.7 0.001924 484.59576 502.77802
544.0 0.001842 484.60220 505.79434
521.1 0.001924 484.60892 512.23706
525.5 0.001907 484.61588 524.97913
520.8 0.001924 484.62308 551.54028
548.5 0.001826 484.63049 602.10028
583.1 0.001722 484.63815 690.47211
761.3 0.001313 484.64606 822.62445
916.3 0.001089 484.65417 993.26068
1138.2 0.000881 484.66248 1175.65173
1289.5 0.000776 484.67102 1325.48413
1403.1 0.000711 484.67975 1392.00171
1322.9 0.000755 484.68869 1346.84485
1208.4 0.000826 484.69781 1210.08545
1022.4 0.000977 484.70712 1033.43042
885.6 0.001126 484.71661 868.29865
760.2 0.001313 484.72629 748.55902
694.3 0.001446 484.73611 687.04443
699.4 0.001435 484.74612 679.55939
696.9 0.001435 484.75629 711.07623
704.7 0.001424 484.76660 760.57745
839.3 0.001189 484.77704 804.78455
863.3 0.001157 484.78763 824.14191
852.1 0.001173 484.79837 812.04132
855.6 0.001165 484.80923 781.94739
787.2 0.001266 484.82022 758.10492
788.7 0.001266 484.83133 763.21362
817.8 0.001223 484.84253 809.76056
896.0 0.001119 484.85385 894.88300
1054.1 0.000947 484.86526 999.29456
1151.5 0.000870 484.87680 1091.71777
1229.4 0.000812 484.88840 1140.37976
1167.7 0.000855 484.90009 1127.65210
1121.5 0.000891 484.91187 1056.31238
1030.4 0.000970 484.92371 947.68384
943.1 0.001061 484.93561 831.00928
794.2 0.001257 484.94757 731.13489
686.7 0.001457 484.95959 662.78003
628.0 0.001587 484.97168 632.60028
656.2 0.001526 484.98380 644.63208
721.8 0.001382 484.99594 705.09985
819.8 0.001223 485.00815 824.71826
976.2 0.001027 485.02036 1015.50940
1269.4 0.000789 485.03259 1284.48511
1629.7 0.000613 485.04486 1623.33142
2043.0 0.000489 485.05710 1998.95044
2462.6 0.000406 485.06940 2356.22119
2642.4 0.000379 485.08167 2623.04590
2678.4 0.000373 485.09390 2726.68701
2479.6 0.000403 485.10617 2627.43018
2208.4 0.000453 485.11841 2353.42822
1987.7 0.000503 485.13062 1987.49548
1753.4 0.000570 485.14279 1616.95520
1422.1 0.000704 485.15494 1297.99146
1100.2 0.000907 485.16705 1049.92834
898.9 0.001111 485.17911 872.28687
756.2 0.001322 485.19113 754.76459
723.1 0.001382 485.20309 688.36401
731.5 0.001372 485.21500 668.66705
652.9 0.001526 485.22681 694.84509
715.0 0.001403 485.23859 764.79889
877.6 0.001141 485.25024 868.96002
957.2 0.001047 485.26184 985.93719
1048.7 0.000953 485.27335 1083.16760
1054.4 0.000947 485.28479 1125.07703
1036.6 0.000964 485.29608 1093.67175
1040.9 0.000959 485.30731 1002.12897
930.3 0.001075 485.31842 884.68530
846.3 0.001181 485.32941 775.48328
739.8 0.001352 485.34027 697.32123
684.0 0.001457 485.35101 658.43268
688.4 0.001457 485.36163 654.34589
644.2 0.001550 485.37210 672.18274
710.8 0.001403 485.38245 696.35034
700.7 0.001424 485.39264 710.92108
681.8 0.001468 485.40268 708.31134
706.1 0.001413 485.41257 692.27026
681.0 0.001468 485.42227 673.90723
666.7 0.001502 485.43185 664.76898
684.5 0.001457 485.44122 671.99359
679.7 0.001468 485.45044 697.14410
670.9 0.001491 485.45947 737.79144
746.9 0.001342 485.46832 790.77887
780.0 0.001285 485.47696 854.10242
883.4 0.001134 485.48541 925.17328
987.3 0.001014 485.49368 997.18646
1029.2 0.000970 485.50174 1055.62524
1040.4 0.000959 485.50958 1080.06030
1096.8 0.000913 485.51721 1056.17517
1041.4 0.000959 485.52460 984.31299
934.8 0.001068 485.53180 883.03424
837.6 0.001197 485.53873 775.76385
689.6 0.001446 485.54544 684.79901
617.9 0.001613 485.55194 620.53845
593.5 0.001680 485.55817 583.84198
571.7 0.001751 485.56415 569.85083
592.8 0.001694 485.56989 571.77203
602.1 0.001666 485.57538 581.74957
573.3 0.001751 485.58060 595.17603
612.4 0.001639 485.58554 609.43494
648.5 0.001538 485.59024 623.41687
641.1 0.001562 485.59464 635.10669
657.4 0.001526 485.59875 640.71411
632.4 0.001587 485.60260 636.20105
642.4 0.001562 485.60617 620.58643
622.1 0.001613 485.60944 597.61469
569.2 0.001751 485.61240 573.41791
529.2 0.001890 485.61508 552.82782
547.5 0.001826 485.61743 539.74652
554.2 0.001811 485.61951 533.44141
537.7 0.001858 485.62125 531.64880
551.8 0.001811 485.62268 531.33069
537.0 0.001858 485.62378 530.32373
524.9 0.001907 485.62457 528.75348
560.3 0.001780 485.62503 529.18549
504.9 0.001975 485.62515 535.80255
529.5 0.001890 485.62494 553.40118
576.1 0.001736 485.62439 585.70850
644.1 0.001550 485.62350 633.90552
643.2 0.001550 485.62225 693.24622
676.6 0.001479 485.62067 752.84106
766.0 0.001303 485.61871 797.05676
760.0 0.001313 485.61642 810.48108
755.9 0.001322 485.61374 787.74554
744.8 0.001342 485.61072 737.62140
637.4 0.001575 485.60733 676.18140
629.0 0.001587 485.60355 617.68439
527.9 0.001890 485.59940 571.16473
530.5 0.001890 485.59488 539.21698
519.4 0.001924 485.58997 519.78772
531.9 0.001874 485.58466 509.83044
485.6 0.002066 485.57898 505.27466
499.6 0.001993 485.57291 504.22928
526.1 0.001907 485.56644 505.34561
511.9 0.001958 485.55957 508.86041
527.2 0.001890 485.55231 516.61157
542.4 0.001842 485.54462 532.68195
536.7 0.001858 485.53656 564.00690
602.5 0.001666 485.52808 619.96973
625.2 0.001600 485.51917 710.09003
756.2 0.001322 485.50986 837.65649
950.7 0.001054 485.50009 995.00208
1134.3 0.000881 485.48996 1158.97766
1259.1 0.000793 485.47937 1292.97266
1270.3 0.000789 485.46835 1358.08508
1349.6 0.000742 485.45694 1333.99402
1280.7 0.000780 485.44507 1237.54700
1206.1 0.000831 485.43277 1110.23523
1081.9 0.000924 485.42001 994.28528
971.1 0.001027 485.40683 917.26654
930.6 0.001075 485.39322 885.72443
852.7 0.001173 485.37915 886.67609
859.7 0.001165 485.36465 896.04578
844.6 0.001181 485.34970 889.53009
861.6 0.001157 485.33429 854.32324
799.8 0.001249 485.31845 793.90442
736.7 0.001362 485.30212 721.93890
595.8 0.001680 485.28537 652.79492
584.6 0.001708 485.26813 596.14618
535.2 0.001874 485.25046 555.64032
540.1 0.001858 485.23230 530.21600
489.8 0.002047 485.21368 516.49609
490.5 0.002047 485.19461 511.23331
484.2 0.002066 485.17508 512.27069
536.1 0.001858 485.15506 518.86798
541.5 0.001842 485.13458 530.83673
575.4 0.001736 485.11362 547.51978
611.2 0.001639 485.09219 566.88470
574.1 0.001736 485.07031 585.21039
581.5 0.001722 485.04794 597.63953
597.5 0.001680 485.02509 599.69098
587.4 0.001708 485.00174 591.01440
587.8 0.001708 484.97794 574.35181
586.9 0.001708 484.95364 554.63928
532.0 0.001874 484.92886 536.72119
523.3 0.001907 484.90359 522.19257
495.7 0.002011 484.87787 512.52783
491.1 0.002029 484.85162 507.54150
523.4 0.001907 484.82492 506.85648
528.6 0.001890 484.79773 510.84952
514.7 0.001941 484.77002 521.37085
522.1 0.001907 484.74185 542.02722
554.3 0.001811 484.71320 578.02527
601.8 0.001666 484.68405 633.35797
628.7 0.001587 484.65439 710.17236
728.6 0.001372 484.62427 804.96777
824.7 0.001214 484.59363 907.58203
944.1 0.001061 484.56253 1002.04614
1048.2 0.000953 484.53091 1070.80933
1090.0 0.000918 484.49881 1103.33728
1110.7 0.000902 484.46622 1100.87146
1129.9 0.000886 484.43314 1070.62878
1035.0 0.000964 484.39957 1017.54706
929.0 0.001075 484.36548 944.08618
849.4 0.001181 484.33093 858.03839
817.6 0.001223 484.29587 769.52203
748.0 0.001332 484.26031 688.87396
668.6 0.001491 484.22427 622.89209
600.8 0.001666 484.18774 574.25128
574.8 0.001736 484.15073 541.97778
562.5 0.001780 484.11322 522.90381
516.8 0.001941 484.07520 513.82190
523.2 0.001907 484.03671 511.32709
537.0 0.001858 483.99774 514.33984
515.8 0.001941 483.95825 522.16760
560.4 0.001780 483.91830 534.51428
588.9 0.001694 483.87784 550.52307
573.2 0.001751 483.83691 568.25067
587.0 0.001708 483.79547 584.61884
613.2 0.001626 483.75357 596.07355
585.0 0.001708 483.71115 600.19556
586.2 0.001708 483.66827 597.28809
569.1 0.001751 483.62491 590.85553
593.1 0.001680 483.58109 587.07373
582.3 0.001722 483.53674 593.49255
615.5 0.001626 483.49194 617.81171
618.0 0.001613 483.44666 666.34833
715.8 0.001392 483.40091 741.95819
816.4 0.001223 483.35468 841.33356
981.9 0.001021 483.30795 953.40082
1115.6 0.000896 483.26077 1059.28333
1184.7 0.000845 483.21313 1136.17920
1153.8 0.000865 483.16501 1163.81262
1146.3 0.000870 483.11642 1135.44385
1081.8 0.000924 483.06738 1065.28284
1020.9 0.000977 483.01785 980.81189
946.7 0.001054 482.96786 908.86969
855.6 0.001165 482.91742 866.48041
785.9 0.001276 482.86652 856.99622
856.6 0.001165 482.81516 870.84412
877.0 0.001141 482.76337 890.13080
850.0 0.001173 482.71109 896.34064
885.2 0.001126 482.65839 879.80078
882.9 0.001134 482.60522 843.45660
824.7 0.001214 482.55161 798.86884
786.0 0.001276 482.49756 757.47986
725.0 0.001382 482.44308 725.73389
734.6 0.001362 482.38815 705.07166
696.7 0.001435 482.33276 692.01746
693.9 0.001446 482.27698 682.71991
677.1 0.001479 482.22073 675.45819
649.1 0.001538 482.16409 670.57263
696.2 0.001435 482.10699 671.74646
653.6 0.001526 482.04950 683.94653
685.1 0.001457 481.99158 711.80536
766.5 0.001303 481.93323 758.37134
809.6 0.001231 481.87448 819.94421
884.1 0.001134 481.81531 887.34277
984.2 0.001014 481.75574 946.15332
1049.3 0.000953 481.69574 980.32922
1017.2 0.000983 481.63538 978.08643
922.2 0.001082 481.57458 937.77740
878.5 0.001141 481.51343 870.46478
839.7 0.001189 481.45184 791.80487
797.8 0.001257 481.38989 715.87946
686.8 0.001457 481.32758 651.01880
571.3 0.001751 481.26483 601.46912
537.2 0.001858 481.20175 567.07794
569.5 0.001751 481.13828 545.11896
554.7 0.001795 481.07443 532.04077
524.9 0.001907 481.01022 524.33246
526.5 0.001907 480.94565 519.29462
518.8 0.001924 480.88071 514.97668
536.8 0.001858 480.81543 510.75778
523.7 0.001907 480.74979 506.64771
511.3 0.001958 480.68381 502.94705
521.7 0.001924 480.61749 499.97626
479.1 0.002085 480.55081 497.96332
494.6 0.002029 480.48383 497.00345
527.1 0.001890 480.41647 497.42627
495.1 0.002011 480.34882 499.61948
506.0 0.001975 480.28085 503.95337
529.8 0.001890 480.21255 512.95990
492.8 0.002029 480.14395 527.98462
585.3 0.001708 480.07501 551.26086
590.6 0.001694 480.00580 583.09637
660.1 0.001514 479.93628 622.92883
711.4 0.001403 479.86646 667.14142
732.4 0.001362 479.79633 709.38757
763.6 0.001313 479.72595 741.38800
745.2 0.001342 479.65527 756.82220
734.4 0.001362 479.58429 753.23920
713.5 0.001403 479.51306 736.16992
698.2 0.001435 479.44159 717.30804
702.9 0.001424 479.36981 710.73364
729.2 0.001372 479.29782 729.47662
785.6 0.001276 479.22556 782.43011
866.8 0.001157 479.15305 871.95959
1017.2 0.000983 479.08029 991.25458
1130.1 0.000886 479.00729 1124.07373
1206.7 0.000831 478.93408 1246.16724
1295.9 0.000772 478.86063 1330.66516
1327.9 0.000755 478.78696 1357.01404
1251.4 0.000798 478.71307 1319.59399
1231.4 0.000812 478.63898 1228.80212
1107.9 0.000902 478.56470 1105.09021
1049.4 0.000953 478.49020 974.30847
873.3 0.001141 478.41550 859.41467
768.6 0.001303 478.34064 776.12286
722.5 0.001382 478.26556 733.75873
754.3 0.001322 478.19034 733.75879
796.2 0.001257 478.11493 772.66974
876.6 0.001141 478.03934 842.57306
922.4 0.001082 477.96362 931.85046
1066.7 0.000935 477.88773 1025.51611
1131.4 0.000886 477.81171 1107.08228
1203.4 0.000831 477.73553 1162.78430
1219.6 0.000821 477.65921 1184.89111
1228.2 0.000816 477.58276 1171.02258
1199.7 0.000835 477.50620 1123.74365
1077.2 0.000930 477.42953 1052.36682
963.6 0.001041 477.35272 971.11658
933.9 0.001068 477.27582 893.22253
882.4 0.001134 477.19882 826.60712
820.2 0.001223 477.12173 773.03345
700.5 0.001424 477.04456 729.62744
690.1 0.001446 476.96729 691.99805
627.4 0.001600 476.88995 657.44159
586.9 0.001708 476.81256 626.15601
555.1 0.001795 476.73511 600.52570
565.1 0.001765 476.65756 584.08447
581.4 0.001722 476.58002 581.23865
575.9 0.001736 476.50241 594.33893
624.7 0.001600 476.42474 625.91876
683.6 0.001468 476.34708 675.56360
803.6 0.001249 476.26938 739.31067
817.5 0.001223 476.19165 809.04883
845.3 0.001181 476.11395 872.95544
944.5 0.001061 476.03622 917.30957
881.6 0.001134 475.95850 930.02570
889.8 0.001126 475.88080 907.50690
874.5 0.001141 475.80310 855.66858
738.8 0.001352 475.72543 786.89307
677.6 0.001479 475.64780 714.30695
630.1 0.001587 475.57019 648.28204
595.0 0.001680 475.49265 595.02509
527.7 0.001890 475.41513 556.67236
509.8 0.001958 475.33768 532.49152
519.7 0.001924 475.26031 520.56158
525.0 0.001907 475.18301 519.08093
510.3 0.001958 475.10577 527.50909
552.4 0.001811 475.02866 547.10962
584.6 0.001708 474.95160 578.37872
622.5 0.001613 474.87466 622.32806
717.9 0.001392 474.79782 677.06750
699.1 0.001435 474.72110 737.91888
760.8 0.001313 474.64450 796.96832
824.0 0.001214 474.56802 844.07581
867.6 0.001149 474.49170 869.28247
847.9 0.001181 474.41553 866.62268
852.2 0.001173 474.33948 837.50018
774.2 0.001294 474.26361 790.03259
715.2 0.001403 474.18790 734.85168
692.8 0.001446 474.11237 681.31384
618.5 0.001613 474.03699 635.56763
584.6 0.001708 473.96182 600.07489
511.1 0.001958 473.88684 574.27252
539.2 0.001858 473.81207 556.02765
517.2 0.001941 473.73752 543.14606
500.2 0.001993 473.66318 534.12524
491.9 0.002029 473.58905 527.84283
506.0 0.001975 473.51517 524.34930
523.8 0.001907 473.44153 522.91876
520.0 0.001924 473.36810 522.76129
534.8 0.001874 473.29495 524.13983
529.8 0.001890 473.22208 527.16742
529.1 0.001890 473.14944 532.77484
520.1 0.001924 473.07712 544.05310
575.5 0.001736 473.00507 565.07172
565.8 0.001765 472.93329 600.45825
654.5 0.001526 472.86182 654.09479
742.6 0.001342 472.79068 727.70538
799.8 0.001249 472.71982 818.74591
868.0 0.001149 472.64929 919.36011
977.6 0.001021 472.57910 1016.92694
1097.2 0.000913 472.50925 1095.63477
1150.4 0.000870 472.43973 1139.09131
1141.4 0.000875 472.37057 1138.39893
1086.7 0.000918 472.30176 1095.64709
1043.5 0.000959 472.23334 1022.80139
933.1 0.001075 472.16528 935.27155
762.5 0.001313 472.09760 846.62213
710.8 0.001403 472.03030 766.02545
669.9 0.001491 471.96341 697.91376
621.2 0.001613 471.89691 642.87012
618.2 0.001613 471.83084 600.72284
534.9 0.001874 471.76520 569.54474
557.5 0.001795 471.69995 547.85547
510.3 0.001958 471.63516 534.26758
544.0 0.001842 471.57083 527.86426
547.8 0.001826 471.50693 527.63098
506.8 0.001975 471.44348 532.25366
547.6 0.001826 471.38049 539.96246
527.1 0.001890 471.31799 548.59174
548.6 0.001826 471.25595 555.77057
541.4 0.001842 471.19443 559.36786
554.0 0.001811 471.13339 558.11884
547.1 0.001826 471.07285 552.06665
513.8 0.001941 471.01282 542.36945
495.4 0.002011 470.95331 530.72278
465.0 0.002143 470.89432 518.83075
515.3 0.001941 470.83585 508.03906
469.2 0.002124 470.77792 499.13828
494.0 0.002029 470.72055 492.20151
466.1 0.002143 470.66373 487.64487
476.3 0.002104 470.60748 484.91916
475.5 0.002104 470.55179 483.65161
493.7 0.002029 470.49670 483.67621
509.5 0.001958 470.44217 485.05234
506.2 0.001975 470.38821 488.17126
492.8 0.002029 470.33490 493.80798
500.9 0.001993 470.28217 503.08075
526.6 0.001907 470.23004 517.48016
542.2 0.001842 470.17853 538.39380
578.6 0.001722 470.12769 566.82697
618.0 0.001613 470.07742 602.86292
651.0 0.001538 470.02783 645.23492
697.0 0.001435 469.97888 691.18768
813.0 0.001231 469.93060 736.79773
753.4 0.001332 469.88297 777.81281
807.6 0.001240 469.83600 810.92767
873.3 0.001141 469.78973 835.45544
889.1 0.001126 469.74414 854.13324
892.9 0.001119 469.69922 872.17792
921.9 0.001082 469.65503 894.50006
972.6 0.001027 469.61151 923.27490
929.4 0.001075 469.56873 956.48199
943.3 0.001061 469.52664 988.22247
939.8 0.001061 469.48529 1009.28479
978.7 0.001021 469.44467 1011.41986
932.2 0.001075 469.40479 988.97015
868.8 0.001149 469.36566 942.17303
829.3 0.001206 469.32727 877.99536
725.5 0.001382 469.28967 804.79333
703.0 0.001424 469.25281 731.36896
646.5 0.001550 469.21671 664.75958
608.5 0.001639 469.18140 609.37305
569.9 0.001751 469.14688 566.94501
544.9 0.001842 469.11316 537.48950
488.6 0.002047 469.08023 518.69202
519.2 0.001924 469.04810 508.91803
493.8 0.002029 469.01678 506.32370
492.8 0.002029 468.98627 509.41888
518.0 0.001924 468.95660 516.98889
548.9 0.001826 468.92776 527.86432
560.8 0.001780 468.89975 540.71368
535.3 0.001874 468.87256 553.79236
567.1 0.001765 468.84625 565.20203
569.8 0.001751 468.82077 572.84113
562.3 0.001780 468.79614 575.19739
540.6 0.001842 468.77240 571.72260
556.6 0.001795 468.74954 563.33130
569.7 0.001751 468.72754 551.59222
535.4 0.001874 468.70642 538.43127
523.0 0.001907 468.68619 525.59790
526.7 0.001890 468.66687 514.49261
490.9 0.002029 468.64844 506.05942
495.6 0.002011 468.63092 500.78827
496.4 0.002011 468.61429 498.78107
499.7 0.001993 468.59860 499.83661
521.6 0.001924 468.58380 503.51266
517.1 0.001941 468.56998 509.15405
524.4 0.001907 468.55704 515.92310
540.2 0.001858 468.54507 522.75604
530.6 0.001890 468.53403 528.56384
527.0 0.001890 468.52393 532.34521
524.4 0.001907 468.51480 533.43854
521.4 0.001924 468.50662 531.66315
544.8 0.001842 468.49942 527.32849
503.6 0.001993 468.49316 521.15460
532.0 0.001874 468.48788 514.08990
516.7 0.001941 468.48358 507.08331
523.2 0.001907 468.48026 500.96976
500.6 0.001993 468.47794 496.24060
514.7 0.001941 468.47659 493.46262
505.9 0.001975 468.47626 492.69373
498.3 0.002011 468.47690 494.91846
517.7 0.001924 468.47858 500.59305
531.5 0.001874 468.48123 510.82425
542.3 0.001842 468.48492 527.04333
548.3 0.001826 468.48962 550.98730
576.7 0.001736 468.49533 584.47113
619.4 0.001613 468.50208 628.65442
672.0 0.001491 468.50986 684.14160
762.9 0.001313 468.51868 749.33234
862.4 0.001157 468.52850 822.08289
947.7 0.001054 468.53940 897.16931
1047.7 0.000953 468.55133 968.27936
1043.7 0.000959 468.56430 1028.67236
1095.1 0.000913 468.57831 1072.76575
1088.5 0.000918 468.59338 1098.10022
1114.1 0.000896 468.60953 1106.15747
1091.7 0.000918 468.62674 1101.85718
1112.7 0.000896 468.64499 1091.77686
1093.2 0.000913 468.66431 1082.51038
1065.6 0.000941 468.68472 1078.15784
1077.3 0.000930 468.70618 1079.57153
1096.9 0.000913 468.72873 1083.62622
1080.8 0.000924 468.75235 1084.16101
1023.9 0.000977 468.77704 1074.25452
1035.7 0.000964 468.80283 1048.32495
1022.1 0.000977 468.82971 1005.83313
930.0 0.001075 468.85767 950.45801
921.7 0.001082 468.88672 888.19269
848.5 0.001181 468.91687 825.36005
779.5 0.001285 468.94812 766.97900
710.7 0.001403 468.98044 716.07343
669.4 0.001491 469.01389 673.57257
632.4 0.001587 469.04843 638.77759
639.3 0.001562 469.08408 610.16089
572.7 0.001751 469.12082 586.14856
547.6 0.001826 469.15866 565.53925
573.5 0.001751 469.19763 547.82489
535.6 0.001874 469.23770 532.74152
513.9 0.001941 469.27887 520.30341
535.2 0.001874 469.32117 510.58850
545.0 0.001842 469.36456 503.57895
519.2 0.001924 469.40909 499.33072
492.8 0.002029 469.45471 497.09811
490.8 0.002029 469.50146 496.64877
521.6 0.001924 469.54932 497.48132
526.1 0.001907 469.59830 499.10135
528.6 0.001890 469.64841 501.08597
536.3 0.001858 469.69962 503.44244
537.8 0.001858 469.75195 505.52463
552.4 0.001811 469.80539 508.02689
530.0 0.001890 469.85995 510.89099
546.6 0.001826 469.91565 515.39221
560.0 0.001780 469.97247 520.70349
579.8 0.001722 470.03040 527.40436
508.6 0.001958 470.08945 535.39618
540.3 0.001858 470.14960 544.18787
571.7 0.001751 470.21088 552.88611
545.8 0.001826 470.27328 560.65125
535.5 0.001874 470.33682 566.69452
616.2 0.001626 470.40143 570.56378
581.1 0.001722 470.46719 572.26221
559.4 0.001780 470.53406 572.19751
574.8 0.001736 470.60202 570.99127
595.5 0.001680 470.67111 569.23505
592.2 0.001694 470.74130 567.38898
554.4 0.001811 470.81262 565.41455
591.5 0.001694 470.88504 563.47394
610.5 0.001639 470.95856 561.33405
540.1 0.001858 471.03317 559.33710
554.2 0.001811 471.10889 558.15857
564.3 0.001765 471.18573 558.48230
568.5 0.001765 471.26364 561.33832
564.6 0.001765 471.34268 567.30841
599.7 0.001666 471.42279 576.52509
629.8 0.001587 471.50400 588.28510
646.6 0.001550 471.58630 602.00281
655.7 0.001526 471.66968 615.68396
667.2 0.001502 471.75415 627.87823
641.2 0.001562 471.83969 636.67505
643.5 0.001550 471.92633 641.25446
653.1 0.001526 472.01404 641.53070
667.2 0.001502 472.10281 638.72015
664.5 0.001502 472.19266 635.07208
618.6 0.001613 472.28357 633.38422
655.4 0.001526 472.37555 636.40375
656.8 0.001526 472.46857 645.85687
676.7 0.001479 472.56265 663.69092
696.8 0.001435 472.65781 689.25757
742.4 0.001352 472.75397 720.82593
775.3 0.001294 472.85120 755.30774
767.6 0.001303 472.94946 788.56744
778.0 0.001285 473.04877 815.99622
847.3 0.001181 473.14911 833.37030
787.5 0.001266 473.25046 837.86530
762.2 0.001313 473.35281 828.95453
788.9 0.001266 473.45621 808.27460
766.6 0.001303 473.56061 779.27039
706.1 0.001413 473.66602 746.20819
706.7 0.001413 473.77243 713.59930
691.2 0.001446 473.87985 685.58746
608.8 0.001639 473.98825 665.60382
622.4 0.001613 474.09763 656.08551
639.4 0.001562 474.20798 658.66760
655.6 0.001526 474.31931 674.20123
690.6 0.001446 474.43161 703.01410
729.1 0.001372 474.54489 745.02057
828.7 0.001206 474.65909 800.05493
885.0 0.001134 474.77426 867.81836
978.4 0.001021 474.89038 948.01587
1046.8 0.000953 475.00742 1039.59290
1176.6 0.000850 475.12540 1141.76416
1291.4 0.000776 475.24429 1253.26526
1479.4 0.000675 475.36414 1372.36340
1615.1 0.000619 475.48486 1496.15491
1778.3 0.000562 475.60651 1619.76929
1842.3 0.000543 475.72903 1736.10706
1881.8 0.000531 475.85245 1836.44373
1887.7 0.000531 475.97675 1911.64758
1950.1 0.000512 476.10190 1953.56055
1945.5 0.000514 476.22794 1956.10339
1864.3 0.000536 476.35486 1916.90234
1790.8 0.000559 476.48260 1838.32556
1729.3 0.000578 476.61118 1728.04407
1634.6 0.000613 476.74060 1597.25391
1489.9 0.000671 476.87085 1458.75488
1288.0 0.000776 477.00192 1325.08899
1158.2 0.000865 477.13382 1206.70398
1044.7 0.000959 477.26648 1111.13049
969.3 0.001034 477.39996 1042.46436
1024.3 0.000977 477.53421 1001.20654
984.9 0.001014 477.66925 984.77979
966.0 0.001034 477.80505 987.82068
1037.6 0.000964 477.94159 1003.24323
1026.1 0.000977 478.07892 1023.21533
1057.0 0.000947 478.21695 1040.02356
1062.3 0.000941 478.35571 1047.32349
1074.2 0.000930 478.49521 1040.81592
1030.7 0.000970 478.63541 1018.54590
1051.9 0.000953 478.77628 981.28528
959.3 0.001041 478.91788 931.83868
874.4 0.001141 479.06015 874.51892
812.5 0.001231 479.20306 813.82806
761.0 0.001313 479.34665 754.25165
678.6 0.001468 479.49091 699.09894
623.6 0.001600 479.63577 650.66791
575.3 0.001736 479.78128 610.13165
566.6 0.001765 479.92740 577.67969
535.4 0.001874 480.07413 552.76184
533.9 0.001874 480.22147 534.36432
522.6 0.001907 480.36935 521.27014
545.3 0.001826 480.51785 512.29742
513.2 0.001941 480.66690 506.30093
522.3 0.001907 480.81647 502.45468
513.4 0.001941 480.96661 500.08755
511.9 0.001958 481.11725 498.80280
503.1 0.001993 481.26843 498.27710
526.9 0.001890 481.42010 498.41693
493.6 0.002029 481.57227 499.20773
498.0 0.002011 481.72491 500.70917
508.2 0.001975 481.87802 503.04410
527.4 0.001890 482.03159 506.37393
509.2 0.001958 482.18561 510.66318
508.5 0.001975 482.34003 516.55945
529.5 0.001890 482.49490 524.01489
535.7 0.001874 482.65015 533.18463
547.6 0.001826 482.80582 544.28046
579.1 0.001722 482.96182 557.41077
608.2 0.001639 483.11823 572.36456
603.2 0.001652 483.27499 588.98730
590.1 0.001694 483.43207 607.00342
642.8 0.001550 483.58951 625.83966
648.2 0.001538 483.74722 644.81732
661.4 0.001514 483.90527 663.01776
654.9 0.001526 484.06357 679.32721
682.3 0.001468 484.22217 692.74847
712.2 0.001403 484.38101 701.86926
694.1 0.001446 484.54010 705.95068
701.3 0.001424 484.69943 704.59448
634.6 0.001575 484.85898 698.07263
660.9 0.001514 485.01874 687.11993
654.1 0.001526 485.17868 673.61481
612.2 0.001639 485.33878 658.96240
606.6 0.001652 485.49905 644.73975
578.9 0.001722 485.65945 632.31580
600.5 0.001666 485.82001 622.48846
629.2 0.001587 485.98068 616.64478
622.2 0.001613 486.14145 615.02692
600.6 0.001666 486.30231 617.76440
627.1 0.001600 486.46326 625.61481
631.8 0.001587 486.62424 637.70410
686.3 0.001457 486.78528 655.22534
709.9 0.001413 486.94632 677.23663
736.3 0.001362 487.10739 702.81696
811.1 0.001231 487.26846 730.55969
860.0 0.001165 487.42953 758.75189
860.1 0.001165 487.59055 785.14093
827.5 0.001206 487.75153 807.40009
840.7 0.001189 487.91241 823.34985
823.7 0.001214 488.07324 831.47443
778.8 0.001285 488.23398 830.82349
795.1 0.001257 488.39462 821.84973
834.8 0.001197 488.55511 805.94141
779.1 0.001285 488.71545 785.13873
740.6 0.001352 488.87567 761.98157
736.6 0.001362 489.03571 738.42273
735.3 0.001362 489.19553 716.66168
723.1 0.001382 489.35516 697.43726
660.2 0.001514 489.51456 681.62592
661.4 0.001514 489.67374 668.83936
649.1 0.001538 489.83267 658.40900
646.0 0.001550 489.99130 649.40063
608.5 0.001639 490.14966 640.86542
618.8 0.001613 490.30774 632.05988
623.3 0.001600 490.46545 622.59033
625.9 0.001600 490.62286 612.45990
600.5 0.001666 490.77994 602.01770
606.4 0.001652 490.93661 591.84125
578.0 0.001736 491.09293 582.59894
550.7 0.001811 491.24881 574.92548
534.1 0.001874 491.40430 569.36981
547.5 0.001826 491.55936 566.14728
556.3 0.001795 491.71396 565.37573
548.0 0.001826 491.86810 566.89166
579.7 0.001722 492.02176 570.32178
510.4 0.001958 492.17490 575.13348
560.1 0.001780 492.32755 580.70239
609.3 0.001639 492.47964 586.40332
603.4 0.001652 492.63120 591.78589
580.3 0.001722 492.78220 596.36688
599.0 0.001666 492.93259 600.11542
545.9 0.001826 493.08240 603.23370
576.2 0.001736 493.23160 606.10193
587.3 0.001708 493.38016 609.32074
638.4 0.001562 493.52805 613.72754
629.9 0.001587 493.67529 619.65662
635.3 0.001575 493.82187 627.71027
622.4 0.001613 493.96771 638.18408
649.2 0.001538 494.11285 651.02643
672.8 0.001491 494.25726 665.98401
701.0 0.001424 494.40091 682.38147
708.4 0.001413 494.54382 699.37866
716.8 0.001392 494.68591 716.03552
702.1 0.001424 494.82724 731.22400
715.3 0.001403 494.96774 744.19482
751.2 0.001332 495.10739 754.30634
754.6 0.001322 495.24622 761.21228
797.7 0.001257 495.38419 764.61963
733.8 0.001362 495.52124 764.86682
750.1 0.001332 495.65741 761.86816
767.1 0.001303 495.79266 755.74677
717.8 0.001392 495.92700 746.68732
690.9 0.001446 496.06039 735.01123
675.1 0.001479 496.19281 721.25427
632.7 0.001575 496.32425 706.18842
657.5 0.001526 496.45471 690.74982
667.2 0.001502 496.58414 675.90656
658.0 0.001514 496.71255 662.47729
665.2 0.001502 496.83990 651.21405
652.1 0.001538 496.96622 642.45422
661.8 0.001514 497.09146 636.27881
635.7 0.001575 497.21561 632.46637
622.6 0.001600 497.33865 630.52588
635.7 0.001575 497.46057 629.76459
620.5 0.001613 497.58139 629.38446
608.3 0.001639 497.70102 628.60901
631.7 0.001587 497.81949 626.82385
613.7 0.001626 497.93677 623.69910
606.9 0.001652 498.05289 619.34912
578.0 0.001736 498.16776 613.93524
595.3 0.001680 498.28143 608.08673
605.6 0.001652 498.39383 602.52319
602.9 0.001652 498.50500 597.96069
609.0 0.001639 498.61490 595.02753
633.8 0.001575 498.72351 594.21893
604.1 0.001652 498.83084 595.78278
579.5 0.001722 498.93683 599.66486
632.7 0.001575 499.04150 605.59430
641.2 0.001562 499.14487 613.22766
665.7 0.001502 499.24686 621.75189
652.9 0.001526 499.34747 630.21710
664.4 0.001502 499.44672 637.83148
685.3 0.001457 499.54456 643.47754
631.8 0.001587 499.64099 646.48682
652.5 0.001538 499.73602 646.39893
662.9 0.001514 499.82962 643.07635
631.8 0.001587 499.92175 636.76080
596.9 0.001680 500.01245 627.94696
600.6 0.001666 500.10168 617.46490
600.2 0.001666 500.18942 606.09644
588.9 0.001694 500.27567 594.61499
556.0 0.001795 500.36044 583.94305
564.8 0.001765 500.44366 574.56183
528.2 0.001890 500.52536 567.02112
545.3 0.001826 500.60553 561.66309
525.4 0.001907 500.68417 558.67877
534.3 0.001874 500.76123 558.12811
573.1 0.001751 500.83673 559.96826
555.8 0.001795 500.91064 564.08661
554.8 0.001795 500.98297 570.33264
606.9 0.001652 501.05368 578.54913
606.7 0.001652 501.12280 588.59210
605.5 0.001652 501.19031 600.34735
640.0 0.001562 501.25620 613.74310
612.1 0.001639 501.32043 628.72797
651.1 0.001538 501.38303 645.36548
713.5 0.001403 501.44397 663.64185
709.6 0.001413 501.50327 683.56567
735.5 0.001362 501.56088 704.97229
764.1 0.001313 501.61682 727.63934
763.7 0.001313 501.67108 751.04791
790.6 0.001266 501.72366 774.50171
782.3 0.001276 501.77454 797.13647
843.8 0.001189 501.82370 817.97388
841.9 0.001189 501.87119 836.01215
878.3 0.001141 501.91693 850.30402
854.6 0.001173 501.96097 860.12762
844.2 0.001181 502.00327 864.65448
859.3 0.001165 502.04385 863.63135
841.1 0.001189 502.08270 857.03717
828.8 0.001206 502.11984 845.12823
801.2 0.001249 502.15521 828.73138
829.8 0.001206 502.18884 808.76428
794.6 0.001257 502.22073 785.96161
778.8 0.001285 502.25085 761.42468
671.9 0.001491 502.27924 736.03186
686.5 0.001457 502.30588 710.47534
668.6 0.001491 502.33075 685.48383
620.7 0.001613 502.35388 661.48401
604.9 0.001652 502.37524 639.21204
585.8 0.001708 502.39487 618.85846
583.2 0.001708 502.41272 600.60809
586.6 0.001708 502.42880 584.57544
542.2 0.001842 502.44315 570.74640
552.0 0.001811 502.45572 559.06982
502.9 0.001993 502.46655 549.49530
536.6 0.001858 502.47565 541.78217
543.6 0.001842 502.48297 535.87537
486.9 0.002047 502.48856 531.59760
473.1 0.002124 502.49240 528.86377
522.0 0.001924 502.49451 527.59039
518.5 0.001924 502.49490 527.72571
513.6 0.001941 502.49353 529.24988
542.5 0.001842 502.49045 532.07117
534.4 0.001874 502.48566 536.42279
523.3 0.001907 502.47916 542.24139
537.5 0.001858 502.47095 549.57214
625.6 0.001600 502.46106 558.43451
623.3 0.001600 502.44946 568.81708
595.3 0.001680 502.43619 580.65942
602.3 0.001666 502.42123 593.84259
614.3 0.001626 502.40463 608.17987
642.9 0.001550 502.38635 623.49310
641.3 0.001562 502.36646 639.33252
681.7 0.001468 502.34491 655.42542
673.8 0.001479 502.32175 671.56091
702.1 0.001424 502.29700 687.09875
717.5 0.001392 502.27063 701.87317
721.0 0.001382 502.24271 715.63361
766.9 0.001303 502.21320 728.21191
740.4 0.001352 502.18213 739.60248
732.2 0.001362 502.14954 749.72113
779.0 0.001285 502.11539 758.76813
791.0 0.001266 502.07977 766.94733
775.2 0.001294 502.04266 774.47174
808.3 0.001240 502.00406 781.50256
834.3 0.001197 501.96402 788.09082
825.1 0.001214 501.92255 794.18250
843.7 0.001189 501.87967 799.46307
809.5 0.001231 501.83536 803.84045
855.9 0.001165 501.78970 806.83142
836.7 0.001197 501.74271 808.08063
805.7 0.001240 501.69437 807.14136
808.8 0.001240 501.64471 803.76923
806.9 0.001240 501.59378 797.80865
777.6 0.001285 501.54156 789.26794
781.2 0.001276 501.48816 778.32990
794.0 0.001257 501.43353 765.32074
777.0 0.001285 501.37772 750.67383
705.6 0.001413 501.32074 734.86737
727.5 0.001372 501.26263 718.37134
689.8 0.001446 501.20346 701.65686
673.3 0.001491 501.14319 685.01068
644.4 0.001550 501.08191 668.77655
639.1 0.001562 501.01959 653.27734
641.6 0.001562 500.95633 638.57117
651.1 0.001538 500.89209 624.90869
616.1 0.001626 500.82700 612.44446
648.8 0.001538 500.76099 601.31134
587.4 0.001708 500.69415 591.57819
585.6 0.001708 500.62653 583.43341
553.3 0.001811 500.55814 576.91260
565.2 0.001765 500.48901 572.08826
570.2 0.001751 500.41919 569.02472
590.1 0.001694 500.34875 567.77576
597.1 0.001680 500.27768 568.38489
601.8 0.001666 500.20605 570.88007
578.4 0.001722 500.13391 575.19110
543.9 0.001842 500.06131 581.50208
558.6 0.001795 499.98825 589.68304
629.2 0.001587 499.91479 599.50165
641.8 0.001562 499.84100 610.93243
645.3 0.001550 499.76694 623.75659
630.9 0.001587 499.69260 637.54651
678.5 0.001479 499.61807 652.29968
728.2 0.001372 499.54337 667.47809
694.9 0.001435 499.46860 682.63446
703.1 0.001424 499.39380 697.30322
735.1 0.001362 499.31897 711.00476
774.1 0.001294 499.24423 723.33368
754.3 0.001322 499.16962 733.90576
723.7 0.001382 499.09515 742.37482
730.5 0.001372 499.02094 748.70160
737.1 0.001362 498.94702 752.59814
773.8 0.001294 498.87344 754.21893
762.4 0.001313 498.80029 753.36273
749.4 0.001332 498.72760 750.29236
753.2 0.001332 498.65546 745.22418
720.1 0.001392 498.58389 738.46606
717.5 0.001392 498.51300 730.30402
714.5 0.001403 498.44287 721.11835
688.1 0.001457 498.37354 711.26282
696.7 0.001435 498.30505 701.13306
669.5 0.001491 498.23752 690.87579
662.1 0.001514 498.17099 680.78247
640.1 0.001562 498.10556 671.01941
637.1 0.001575 498.04129 661.69818
650.1 0.001538 497.97824 652.88879
619.9 0.001613 497.91650 644.66833
614.5 0.001626 497.85617 636.99683
618.8 0.001613 497.79730 630.01385
639.1 0.001562 497.73996 623.60352
587.7 0.001708 497.68427 617.93610
567.8 0.001765 497.63028 612.96027
572.7 0.001751 497.57809 608.79559
599.8 0.001666 497.52777 605.52667
606.2 0.001652 497.47943 603.25555
588.0 0.001708 497.43314 602.22223
581.0 0.001722 497.38901 602.33423
590.8 0.001694 497.34711 603.86060
655.6 0.001526 497.30753 606.95880
640.4 0.001562 497.27039 611.77948
681.9 0.001468 497.23575 618.44830
661.7 0.001514 497.20374 627.04706
634.3 0.001575 497.17444 637.59576
702.5 0.001424 497.14795 650.05737
704.4 0.001424 497.12439 664.24127
708.4 0.001413 497.10382 679.92151
732.2 0.001362 497.08640 696.75079
768.5 0.001303 497.07220 714.28705
796.6 0.001257 497.06134 732.00476
799.5 0.001249 497.05392 749.31421
775.4 0.001294 497.05008 765.58856
771.5 0.001294 497.04987 780.19989
804.5 0.001240 497.05347 792.41681
792.3 0.001266 497.06094 802.01984
811.3 0.001231 497.07245 808.47925
801.1 0.001249 497.08807 811.56329
882.3 0.001134 497.10797 811.20850
792.5 0.001257 497.13223 807.51880
789.4 0.001266 497.16098 800.74854
779.5 0.001285 497.19437 791.27533
784.6 0.001276 497.23248 779.51953
773.3 0.001294 497.27551 766.10925
745.5 0.001342 497.32352 751.55029
673.3 0.001491 497.37668 736.35657
679.8 0.001468 497.43512 721.11676
660.5 0.001514 497.49899 706.13593
643.8 0.001550 497.56839 692.01160
623.2 0.001600 497.64349 678.94818
665.7 0.001502 497.72440 667.12628
645.0 0.001550 497.81131 656.67194
loop_
_refln_index_h
_refln_index_k
_refln_index_l
_refln_observed_status
_refln_F_squared_meas
_refln_F_squared_calc
_refln_phase_calc
_refln_d_spacing
_gsas_i100_meas
1 2 -1 o 37.189 36.129 180.00 3.19989 100.00
1 3 0 o 0.260 0.241 0.00 3.09164 0.65
1 2 1 o 31.380 31.806 180.00 3.02936 75.90
0 3 1 o 1.443 1.463 0.00 3.02913 3.49
0 4 0 o 0.000 0.095 180.00 2.81666 0.00
2 0 0 o 0.050 0.043 0.00 2.72285 0.05
0 0 2 o 3.652 5.900 180.00 2.56214 3.20
2 2 0 o 4.710 5.244 180.00 2.45150 7.60
2 1 -1 o 9.188 9.735 0.00 2.42866 14.57
1 1 -2 o 10.794 10.171 180.00 2.34001 15.96
0 2 2 o 0.942 0.892 180.00 2.33225 1.38
2 1 1 o 23.482 23.214 180.00 2.28130 33.09
1 4 -1 o 30.387 30.093 180.00 2.28100 42.82
1 4 1 o 53.399 53.150 0.00 2.21674 71.33
1 1 2 o 2.338 2.393 0.00 2.20736 3.10
1 5 0 o 3.581 3.125 0.00 2.08212 4.26
2 3 -1 o 12.572 10.873 0.00 2.07363 14.84
0 5 1 o 11.425 9.857 180.00 2.06270 13.36
1 3 -2 o 0.630 0.370 180.00 2.01763 0.71
2 3 1 o 9.279 8.844 180.00 1.97963 10.06
2 4 0 o 83.619 80.444 0.00 1.95767 88.86
2 0 -2 o 122.899 118.725 180.00 1.94402 64.47
1 3 2 o 26.537 26.796 180.00 1.93073 27.50
0 4 2 o 92.483 95.735 180.00 1.89531 92.68
0 6 0 o 0.143 0.140 180.00 1.87777 0.07
2 2 -2 o 3.887 3.644 0.00 1.83768 3.69
2 0 2 o 110.764 111.380 180.00 1.79656 50.44
3 1 0 o 3.086 3.267 0.00 1.79212 2.80
2 2 2 o 10.106 9.737 0.00 1.71163 8.45
1 6 -1 o 24.753 25.426 0.00 1.69090 20.27
0 1 3 o 3.342 3.435 0.00 1.68880 2.73
3 2 -1 o 60.842 57.605 0.00 1.67572 49.04
2 5 -1 o 1.572 1.545 0.00 1.66990 1.26
1 6 1 o 17.704 18.438 0.00 1.66421 14.10
1 5 -2 o 16.943 18.253 180.00 1.64023 13.16
3 3 0 o 12.046 13.285 0.00 1.63434 9.30
2 5 1 o 0.115 0.176 0.00 1.61962 0.09
3 2 1 o 9.733 9.399 0.00 1.60121 7.26
2 4 -2 o 5.164 4.948 0.00 1.59995 3.84
1 2 -3 o 21.151 20.160 180.00 1.59918 15.73
1 5 2 o 6.786 6.222 180.00 1.59251 5.01
0 3 3 o 0.931 0.991 180.00 1.55483 0.66
2 6 0 o 7.050 7.542 180.00 1.54582 4.95
1 7 0 o 23.702 24.890 0.00 1.54351 16.61
0 7 1 o 0.110 0.113 0.00 1.53555 0.08
1 2 3 o 34.168 35.336 180.00 1.53404 23.70
3 1 -2 o 17.439 16.964 180.00 1.52538 11.98
2 4 2 o 4.573 4.917 0.00 1.51468 3.11
0 6 2 o 6.805 7.337 0.00 1.51456 4.62
3 4 -1 o 9.202 8.210 180.00 1.48963 6.08
2 1 -3 o 13.176 11.602 180.00 1.48808 8.69
3 4 1 o 0.796 0.926 0.00 1.43655 0.50
1 4 -3 o 32.919 36.969 0.00 1.43509 20.48
3 3 -2 o 0.331 0.277 0.00 1.42450 0.20
3 1 2 o 0.293 0.345 0.00 1.41761 0.18
3 5 0 o 24.631 26.795 0.00 1.41360 14.96
0 8 0 o 1.927 1.970 0.00 1.40833 0.58
2 3 -3 o 26.002 26.232 180.00 1.39398 15.45
2 1 3 o 17.305 16.635 0.00 1.38752 10.21
1 4 3 o 15.405 14.781 180.00 1.38745 9.09
4 0 0 o 39.549 39.272 0.00 1.36143 11.33
0 5 3 o 1.099 1.081 0.00 1.36121 0.63
2 7 -1 o 2.588 1.751 0.00 1.35125 1.47
2 6 -2 o 0.031 0.020 180.00 1.35060 0.02
3 3 2 o 10.006 9.354 180.00 1.33555 5.57
1 7 -2 o 1.043 0.982 0.00 1.33539 0.58
4 1 -1 o 7.424 7.742 0.00 1.33289 4.12
2 7 1 o 9.225 9.363 0.00 1.32420 5.07
1 8 -1 o 67.223 68.128 180.00 1.32414 36.94
4 2 0 o 48.415 48.112 180.00 1.32333 26.58
1 8 1 o 28.670 26.671 0.00 1.31121 15.53
2 3 3 o 0.392 0.362 0.00 1.31030 0.21
1 7 2 o 0.042 0.038 180.00 1.30926 0.02
2 6 2 o 0.002 0.001 180.00 1.29812 0.00
4 1 1 o 3.303 3.548 180.00 1.28237 1.73
3 6 -1 o 0.093 0.099 180.00 1.28225 0.05
0 0 4 o 116.715 120.548 0.00 1.28107 30.56
3 5 -2 o 23.357 21.796 180.00 1.27118 12.10
4 3 -1 o 14.095 12.805 0.00 1.26400 7.24
3 2 -3 o 20.404 18.337 0.00 1.26302 10.47
1 1 -4 o 20.937 18.476 0.00 1.26156 10.73
2 8 0 o 28.710 28.529 180.00 1.25091 14.54
2 5 -3 o 17.308 17.239 0.00 1.24935 8.75
0 2 4 o 2.711 2.701 0.00 1.24918 1.37
3 6 1 o 97.386 96.930 180.00 1.24793 49.15
1 6 -3 o 38.177 37.774 0.00 1.24697 19.25
4 0 -2 o 33.159 31.244 0.00 1.24357 8.33
0 8 2 o 46.669 46.811 0.00 1.23417 23.20
4 4 0 o 15.103 14.925 180.00 1.22575 7.44
4 3 1 o 0.960 1.033 180.00 1.22068 0.47
1 9 0 o 5.084 5.534 0.00 1.22003 2.49
1 1 4 o 7.076 7.715 180.00 1.21848 3.46
0 9 1 o 5.242 5.373 0.00 1.21608 2.55
1 6 3 o 18.279 18.267 0.00 1.21533 8.90
4 2 -2 o 21.075 20.420 0.00 1.21433 10.25
3 5 2 o 4.759 4.452 180.00 1.20677 2.30
3 7 0 o 1.123 1.054 0.00 1.20429 0.54
1 3 -4 o 10.249 9.622 180.00 1.20269 4.92
2 0 -4 o 5.675 5.056 180.00 1.19609 1.35
2 5 3 o 23.186 26.439 0.00 1.18804 10.96
3 4 -3 o 0.007 0.007 0.00 1.17736 0.00
3 2 3 o 52.779 53.989 0.00 1.17152 24.51
0 7 3 o 17.734 18.056 180.00 1.17140 8.24
2 2 -4 o 1.820 1.773 0.00 1.17001 0.84
0 4 4 o 4.899 4.918 180.00 1.16612 2.26
1 3 4 o 15.156 15.624 0.00 1.16518 6.99
4 0 2 o 23.915 24.953 0.00 1.16478 5.51
4 5 -1 o 10.043 9.455 180.00 1.15320 4.58
4 2 2 o 31.482 33.968 0.00 1.14065 14.16
2 8 -2 o 7.469 7.997 180.00 1.14050 3.36
4 4 -2 o 32.168 30.011 180.00 1.13762 14.43
0 10 0 o 11.919 11.049 180.00 1.12666 2.64
2 0 4 o 8.454 8.407 180.00 1.12549 1.87
4 5 1 o 6.542 6.601 180.00 1.12002 2.88
2 9 -1 o 59.906 58.823 180.00 1.11819 26.35
3 7 -2 o 35.479 35.520 180.00 1.11254 15.52
1 9 -2 o 0.148 0.142 0.00 1.10915 0.06
2 8 2 o 10.650 10.293 180.00 1.10837 4.64
1 5 -4 o 7.480 7.473 0.00 1.10608 3.25
2 2 4 o 0.582 0.580 180.00 1.10368 0.25
4 1 -3 o 2.517 2.466 180.00 1.10275 1.09
2 9 1 o 0.936 0.917 180.00 1.10272 0.41
4 6 0 o 0.042 0.041 0.00 1.10221 0.02
3 4 3 o 2.533 2.452 180.00 1.10220 1.10
2 4 -4 o 45.602 43.066 0.00 1.10094 19.73
3 8 -1 o 1.902 1.745 180.00 1.09844 0.82
2 7 -3 o 1.710 1.560 180.00 1.09782 0.74
1 9 2 o 2.322 1.827 180.00 1.09404 1.00
5 1 0 o 1.495 1.382 0.00 1.08409 0.64
3 1 -4 o 24.096 23.251 0.00 1.08283 10.25
1 10 -1 o 2.564 2.527 180.00 1.08214 1.09
1 5 4 o 0.089 0.089 0.00 1.07669 0.04
3 8 1 o 17.937 18.093 0.00 1.07663 7.59
4 4 2 o 34.103 34.376 180.00 1.07637 14.43
1 8 -3 o 13.564 13.650 0.00 1.07602 5.74
1 10 1 o 30.782 30.733 180.00 1.07505 13.01
3 7 2 o 40.353 38.380 180.00 1.06859 16.95
3 6 -3 o 48.548 45.998 180.00 1.06663 20.36
5 2 -1 o 3.205 3.261 180.00 1.06338 1.34
4 3 -3 o 12.489 13.081 180.00 1.06278 5.22
0 6 4 o 0.214 0.220 0.00 1.05825 0.09
2 7 3 o 9.631 9.966 180.00 1.05552 4.00
1 8 3 o 38.339 39.700 180.00 1.05549 15.93
5 3 0 o 3.397 3.523 180.00 1.04604 1.40
2 4 4 o 38.500 40.415 0.00 1.04514 15.87
3 3 -4 o 0.851 0.897 0.00 1.04491 0.35
2 10 0 o 3.603 4.774 0.00 1.04106 1.48
4 6 -2 o 2.901 3.261 0.00 1.03682 1.19
0 10 2 o 0.253 0.264 0.00 1.03135 0.10
5 2 1 o 72.506 75.688 180.00 1.03095 29.57
4 7 -1 o 0.038 0.039 0.00 1.03086 0.02
3 9 0 o 1.608 1.683 0.00 1.03055 0.66
5 1 -2 o 8.862 9.628 180.00 1.02777 3.61
4 1 3 o 6.798 8.531 0.00 1.02170 2.75
0 1 5 o 1.001 1.412 180.00 1.02064 0.41
5 4 -1 o 3.959 3.690 0.00 1.01073 1.59
3 6 3 o 0.032 0.031 180.00 1.00979 0.01
0 9 3 o 32.859 31.213 0.00 1.00971 13.22
2 6 -4 o 2.679 2.592 180.00 1.00882 1.08
4 7 1 o 0.029 0.030 0.00 1.00695 0.01
1 11 0 o 10.760 11.210 180.00 1.00659 4.32
3 1 4 o 4.750 5.090 180.00 1.00579 1.91
1 2 -5 o 44.718 48.289 180.00 1.00552 17.94
0 11 1 o 2.853 3.145 0.00 1.00437 1.14
1 7 -4 o 12.212 12.613 0.00 0.99678 4.88
5 3 -2 o 0.587 0.603 0.00 0.99518 0.23
4 5 -3 o 0.316 0.320 0.00 0.99435 0.13
4 6 2 o 4.620 4.218 0.00 0.98982 1.84
4 3 3 o 0.142 0.130 0.00 0.98966 0.06
0 3 5 o 4.320 3.829 0.00 0.98870 1.72
5 4 1 o 0.048 0.042 0.00 0.98276 0.02
2 1 -5 o 3.292 3.054 0.00 0.98138 1.31
5 5 0 o 0.010 0.009 0.00 0.98060 0.00
3 5 -4 o 41.742 39.898 0.00 0.97967 16.54
4 8 0 o 29.601 28.623 0.00 0.97884 11.72
1 2 5 o 15.903 15.551 180.00 0.97796 6.30
3 3 4 o 39.553 39.151 0.00 0.97518 15.65
1 7 4 o 30.812 30.491 0.00 0.97512 12.19
2 10 -2 o 2.608 2.576 0.00 0.97479 1.03
4 0 -4 o 10.713 10.166 0.00 0.97201 2.12
5 1 2 o 1.418 1.314 0.00 0.97140 0.56
3 9 -2 o 6.431 5.921 180.00 0.97128 2.54
2 6 4 o 4.901 3.022 180.00 0.96537 1.93
2 9 -3 o 7.336 6.299 0.00 0.96144 2.89
1 4 -5 o 6.311 5.618 180.00 0.96066 2.49
4 2 -4 o 9.795 8.735 180.00 0.95786 3.86
2 10 2 o 0.547 0.476 0.00 0.95450 0.22
3 8 -3 o 8.579 7.536 0.00 0.95366 3.38
2 3 -5 o 17.241 15.408 0.00 0.95288 6.78
3 10 -1 o 41.693 43.335 0.00 0.94813 16.40
0 8 4 o 2.595 2.736 0.00 0.94766 1.02
2 11 -1 o 8.650 9.244 180.00 0.94707 3.40
5 3 2 o 3.745 3.867 180.00 0.94375 1.47
3 9 2 o 12.611 12.182 180.00 0.94162 4.96
1 11 -2 o 30.863 29.784 180.00 0.94156 12.14
5 2 -3 o 57.555 55.546 180.00 0.93969 22.64
0 12 0 o 90.748 88.783 180.00 0.93889 17.85
5 5 -2 o 7.606 7.519 180.00 0.93833 2.99
5 6 -1 o 122.726 121.923 0.00 0.93805 48.28
2 11 1 o 11.509 11.515 0.00 0.93761 4.53
1 4 5 o 10.890 11.022 0.00 0.93654 4.28
3 10 1 o 0.110 0.110 180.00 0.93400 0.04
4 5 3 o 0.314 0.311 0.00 0.93370 0.12
1 10 -3 o 15.098 14.948 180.00 0.93360 5.94
0 5 5 o 27.088 26.663 180.00 0.93290 10.66
2 9 3 o 12.450 12.244 180.00 0.93264 4.90
1 11 2 o 7.893 7.763 180.00 0.93227 3.11
4 8 -2 o 6.813 6.703 0.00 0.93217 2.68
2 1 5 o 24.390 24.013 180.00 0.93195 9.60
3 5 4 o 5.812 5.424 0.00 0.92152 2.29
1 10 3 o 5.102 5.137 180.00 0.92010 2.02
4 4 -4 o 27.977 30.017 180.00 0.91884 11.06
5 6 1 o 7.970 8.027 180.00 0.91556 3.15
4 9 -1 o 0.374 0.375 180.00 0.91550 0.15
4 7 -3 o 10.743 10.019 180.00 0.91269 4.26
1 12 -1 o 0.048 0.045 180.00 0.91265 0.02
3 8 3 o 0.015 0.014 180.00 0.91238 0.01
3 2 -5 o 24.469 23.263 0.00 0.91200 9.70
2 8 -4 o 26.832 25.793 180.00 0.91166 10.64
1 12 1 o 9.374 9.772 0.00 0.90839 3.72
6 0 0 o 21.203 22.550 180.00 0.90762 4.21
2 3 5 o 0.614 0.656 180.00 0.90745 0.24
6 1 -1 o 6.449 7.361 180.00 0.90315 2.57
5 4 -3 o 1.810 2.041 180.00 0.90276 0.72
2 5 -5 o 0.466 0.523 180.00 0.90263 0.19
5 7 0 o 5.927 6.508 0.00 0.90203 2.37
3 7 -4 o 0.364 0.389 0.00 0.90130 0.15
4 9 1 o 19.985 20.642 0.00 0.89863 8.00
4 0 4 o 13.555 14.063 0.00 0.89828 2.71
1 6 -5 o 0.797 0.836 0.00 0.89761 0.32
4 8 2 o 5.398 5.668 0.00 0.89757 2.16
6 2 0 o 27.137 29.028 180.00 0.89606 10.88
5 5 2 o 0.002 0.002 0.00 0.89485 0.00
3 11 0 o 20.275 20.627 0.00 0.89204 8.17
1 9 -4 o 0.510 0.511 0.00 0.89138 0.21
2 12 0 o 1.989 1.902 180.00 0.88760 0.81
4 2 4 o 26.010 25.690 180.00 0.88707 10.53
0 12 2 o 11.178 10.830 0.00 0.88156 4.56
6 3 -1 o 0.092 0.088 180.00 0.88079 0.04
2 8 4 o 18.876 18.340 180.00 0.87922 7.73
6 1 1 o 2.267 2.207 0.00 0.87915 0.93
0 11 3 o 4.001 3.995 180.00 0.87842 1.64
3 4 -5 o 0.186 0.188 180.00 0.87813 0.08
1 6 5 o 37.967 38.855 0.00 0.87785 15.57
6 0 -2 o 13.452 13.943 180.00 0.87759 2.76
5 2 3 o 2.856 3.203 180.00 0.87637 1.17
1 9 4 o 9.972 11.778 0.00 0.87579 4.10
6 2 -2 o 28.002 26.047 0.00 0.86713 11.71
5 7 -2 o 5.104 4.727 0.00 0.86880 2.13
4 10 0 o 9.002 8.316 0.00 0.86799 3.76
4 7 3 o 13.572 12.855 180.00 0.86512 5.70
0 7 5 o 9.758 9.323 0.00 0.86448 4.10
6 4 0 o 30.878 29.765 0.00 0.86388 13.00
2 5 5 o 4.038 3.901 180.00 0.86373 1.70
4 6 -4 o 1.243 1.208 0.00 0.86322 0.52
5 1 -4 o 13.909 13.508 0.00 0.86157 5.89
6 3 1 o 0.958 0.892 0.00 0.85849 0.41
5 8 -1 o 1.794 1.670 180.00 0.85844 0.76
1 13 0 o 2.224 2.114 180.00 0.85589 0.95
4 4 4 o 23.569 22.449 180.00 0.85581 10.12
3 7 4 o 0.963 0.929 0.00 0.85540 0.41
0 13 1 o 19.189 19.128 180.00 0.85453 8.27
0 0 6 o 5.048 5.130 0.00 0.85405 1.09
3 2 5 o 12.167 12.499 0.00 0.85378 5.25
3 11 -2 o 2.155 2.292 0.00 0.85276 0.93
3 10 -3 o 2.534 2.608 0.00 0.85029 1.11
5 6 -3 o 0.244 0.244 180.00 0.84985 0.11
1 1 -6 o 12.378 13.333 180.00 0.85166 5.38
4 1 -5 o 7.105 6.859 0.00 0.84928 3.11
5 4 3 o 3.584 3.354 0.00 0.84619 1.58
2 11 -3 o 0.058 0.055 0.00 0.84608 0.03
0 10 4 o 17.028 16.049 180.00 0.84602 7.53
2 12 -2 o 40.715 39.489 0.00 0.84545 18.04
0 2 6 o 16.175 16.579 180.00 0.84440 7.19
