#------------------------------------------------------------------------------
#$Date: 2016-02-18 14:25:00 +0200 (Thu, 18 Feb 2016) $
#$Revision: 176728 $
#$URL: svn://www.crystallography.net/cod/cif/8/10/15/8101510.cif $
#------------------------------------------------------------------------------
#
# This file is available in the Crystallography Open Database (COD),
# http://www.crystallography.net/
#
# All data on this site have been placed in the public domain by the
# contributors.
#
data_8101510
loop_
_publ_author_name
'Patzke, Greta'
'Wartchow, Rudolf'
'Binnewies, Michael'
_publ_section_title
;
Crystal structure of triholmium pentagallium dodecaoxide, Ho3Ga2(GaO4)3 and 
of tridysprosium pentagallium dodecaoxide, Dy3Ga2(GaO4)3
;
_journal_issue                   2
_journal_name_full
'Zeitschrift f\"ur Kristallographie - New Crystal Structures'
_journal_page_first              143
_journal_page_last               144
_journal_volume                  214
_journal_year                    1999
_chemical_formula_structural     'Dy3 Ga2 (Ga O4)3'
_chemical_formula_sum            'Dy3 Ga5 O12'
_chemical_formula_weight         1028.10
_chemical_name_common            'dysprosium gallium garnet'
_space_group_IT_number           230
_symmetry_cell_setting           cubic
_symmetry_space_group_name_Hall  '-I 4bd 2c 3'
_symmetry_space_group_name_H-M   'I a -3 d'
_cell_angle_alpha                90.00
_cell_angle_beta                 90.00
_cell_angle_gamma                90.00
_cell_formula_units_Z            8
_cell_length_a                   12.306(1)
_cell_length_b                   12.306(1)
_cell_length_c                   12.306(1)
_cell_measurement_temperature    300(2)
_cell_volume                     1863.6(3)
_diffrn_ambient_temperature      300(2)
_exptl_crystal_density_diffrn    7.329
_refine_ls_R_factor_obs          0.0166
_refine_ls_wR_factor_obs         0.0259
_cod_original_sg_symbol_H-M      'I a 3 d'
_cod_database_code               8101510
loop_
_symmetry_equiv_pos_as_xyz
'x, y, z'
'y, z, x'
'z, x, y'
'x+1/2, y, -z+1/2'
'y+1/2, z, -x+1/2'
'z+1/2, x, -y+1/2'
'y+1/2, -z+1/2, -x'
'z+1/2, -x+1/2, -y'
'-z, x+1/2, -y+1/2'
'-x, y+1/2, -z+1/2'
'-y, z+1/2, -x+1/2'
'x+1/2, -y+1/2, -z'
'y+1/4, x+1/4, z+1/4'
'z+1/4, y+1/4, x+1/4'
'x+1/4, z+1/4, y+1/4'
'y+1/4, x+3/4, -z+3/4'
'z+1/4, y+3/4, -x+3/4'
'x+1/4, z+3/4, -y+3/4'
'-z+3/4, y+3/4, -x+1/4'
'-x+3/4, z+3/4, -y+1/4'
'x+3/4, -z+1/4, -y+3/4'
'y+3/4, -x+1/4, -z+3/4'
'z+3/4, -y+1/4, -x+3/4'
'-y+3/4, x+3/4, -z+1/4'
'x+1/2, y+1/2, z+1/2'
'y+1/2, z+1/2, x+1/2'
'z+1/2, x+1/2, y+1/2'
'x+1, y+1/2, -z+1'
'y+1, z+1/2, -x+1'
'z+1, x+1/2, -y+1'
'y+1, -z+1, -x+1/2'
'z+1, -x+1, -y+1/2'
'-z+1/2, x+1, -y+1'
'-x+1/2, y+1, -z+1'
'-y+1/2, z+1, -x+1'
'x+1, -y+1, -z+1/2'
'y+3/4, x+3/4, z+3/4'
'z+3/4, y+3/4, x+3/4'
'x+3/4, z+3/4, y+3/4'
'y+3/4, x+5/4, -z+5/4'
'z+3/4, y+5/4, -x+5/4'
'x+3/4, z+5/4, -y+5/4'
'-z+5/4, y+5/4, -x+3/4'
'-x+5/4, z+5/4, -y+3/4'
'x+5/4, -z+3/4, -y+5/4'
'y+5/4, -x+3/4, -z+5/4'
'z+5/4, -y+3/4, -x+5/4'
'-y+5/4, x+5/4, -z+3/4'
'-x, -y, -z'
'-y, -z, -x'
'-z, -x, -y'
'-x-1/2, -y, z-1/2'
'-y-1/2, -z, x-1/2'
'-z-1/2, -x, y-1/2'
'-y-1/2, z-1/2, x'
'-z-1/2, x-1/2, y'
'z, -x-1/2, y-1/2'
'x, -y-1/2, z-1/2'
'y, -z-1/2, x-1/2'
'-x-1/2, y-1/2, z'
'-y-1/4, -x-1/4, -z-1/4'
'-z-1/4, -y-1/4, -x-1/4'
'-x-1/4, -z-1/4, -y-1/4'
'-y-1/4, -x-3/4, z-3/4'
'-z-1/4, -y-3/4, x-3/4'
'-x-1/4, -z-3/4, y-3/4'
'z-3/4, -y-3/4, x-1/4'
'x-3/4, -z-3/4, y-1/4'
'-x-3/4, z-1/4, y-3/4'
'-y-3/4, x-1/4, z-3/4'
'-z-3/4, y-1/4, x-3/4'
'y-3/4, -x-3/4, z-1/4'
'-x+1/2, -y+1/2, -z+1/2'
'-y+1/2, -z+1/2, -x+1/2'
'-z+1/2, -x+1/2, -y+1/2'
'-x, -y+1/2, z'
'-y, -z+1/2, x'
'-z, -x+1/2, y'
'-y, z, x+1/2'
'-z, x, y+1/2'
'z+1/2, -x, y'
'x+1/2, -y, z'
'y+1/2, -z, x'
'-x, y, z+1/2'
'-y+1/4, -x+1/4, -z+1/4'
'-z+1/4, -y+1/4, -x+1/4'
'-x+1/4, -z+1/4, -y+1/4'
'-y+1/4, -x-1/4, z-1/4'
'-z+1/4, -y-1/4, x-1/4'
'-x+1/4, -z-1/4, y-1/4'
'z-1/4, -y-1/4, x+1/4'
'x-1/4, -z-1/4, y+1/4'
'-x-1/4, z+1/4, y-1/4'
'-y-1/4, x+1/4, z-1/4'
'-z-1/4, y+1/4, x-1/4'
'y-1/4, -x-1/4, z+1/4'
loop_
_atom_site_aniso_label
_atom_site_aniso_U_11
_atom_site_aniso_U_22
_atom_site_aniso_U_33
_atom_site_aniso_U_23
_atom_site_aniso_U_13
_atom_site_aniso_U_12
Dy1 0.00588(15) 0.00588(15) 0.0044(2) 0.000 0.000 0.00079(12)
Ga1 0.0050(2) 0.0050(2) 0.0050(2) -0.0003(2) -0.0003(2) -0.0003(2)
Ga2 0.0047(2) 0.0047(2) 0.0032(3) 0.000 0.000 0.000
O1 0.0062(11) 0.0086(11) 0.0062(12) 0.0004(8) 0.0014(8) -0.0014(8)
loop_
_atom_site_label
_atom_site_type_symbol
_atom_site_fract_x
_atom_site_fract_y
_atom_site_fract_z
_atom_site_U_iso_or_equiv
_atom_site_thermal_displace_type
_atom_site_occupancy
_atom_site_calc_flag
_atom_site_refinement_flags
_atom_site_disorder_group
Dy1 Dy 0.0000 0.2500 0.1250 0.00540(13) Uani 1 d S .
Ga1 Ga 0.0000 0.0000 0.0000 0.0050(2) Uani 1 d S .
Ga2 Ga 0.0000 0.2500 0.3750 0.0042(2) Uani 1 d S .
O1 O -0.0278(2) 0.0549(2) 0.1499(2) 0.0070(5) Uani 1 d . .
loop_
_geom_bond_atom_site_label_1
_geom_bond_atom_site_label_2
_geom_bond_distance
_geom_bond_site_symmetry_2
_geom_bond_publ_flag
Dy1 O1 2.347(2) 41_444 ?
Dy1 O1 2.347(2) 77 ?
Dy1 O1 2.347(2) 2 ?
Dy1 O1 2.347(2) 86 ?
Dy1 O1 2.444(2) 40_444 ?
Dy1 O1 2.444(2) . ?
Dy1 O1 2.444(2) 76 ?
Dy1 O1 2.444(2) 85 ?
Dy1 Ga2 3.0765(3) . ?
Dy1 Ga2 3.0765(3) 58_565 ?
Dy1 Ga1 3.4396(3) 40_444 ?
Dy1 Ga1 3.4396(3) . ?
Ga1 O1 1.994(2) 51 ?
Ga1 O1 1.994(2) . ?
Ga1 O1 1.994(2) 50 ?
Ga1 O1 1.994(2) 49 ?
Ga1 O1 1.994(2) 2 ?
Ga1 O1 1.994(2) 3 ?
Ga1 Dy1 3.4396(3) 50 ?
Ga1 Dy1 3.4396(3) 51 ?
Ga1 Dy1 3.4396(3) 49 ?
Ga1 Dy1 3.4397(3) 3 ?
Ga1 Dy1 3.4397(3) 2 ?
Ga2 O1 1.845(2) 41_444 ?
Ga2 O1 1.845(2) 79 ?
Ga2 O1 1.845(2) 59_566 ?
Ga2 O1 1.845(2) 86 ?
Ga2 Dy1 3.0765(3) 58_566 ?
O1 Ga2 1.845(2) 6_455 ?
O1 Dy1 2.347(2) 3 ?
