#------------------------------------------------------------------------------
#$Date: 2015-10-09 16:58:33 +0300 (Fri, 09 Oct 2015) $
#$Revision: 162232 $
#$URL: svn://www.crystallography.net/cod/cif/8/10/39/8103910.cif $
#------------------------------------------------------------------------------
#
# This file is available in the Crystallography Open Database (COD),
# http://www.crystallography.net/
#
# All data on this site have been placed in the public domain by the
# contributors.
#
data_8103910
loop_
_publ_author_name
'Hartenbach, I.'
'Schleid, T.'
_publ_section_title
;
 M4.667Ch[Si O4]3 (M = Nd, Sm; Ch = O, S): structural comparison of two
 apatite-type lanthanoid chalcogenide ortho-oxosilicates
;
_journal_name_full
'Zeitschrift fuer Kristallographie (149,1979-)'
_journal_page_first              206
_journal_page_last               210
_journal_volume                  220
_journal_year                    2005
_chemical_formula_sum            'Nd4.69 O13 Si3'
_chemical_name_systematic        'Nd4.69 O (Si O4)3'
_space_group_IT_number           176
_symmetry_space_group_name_Hall  '-P 6c'
_symmetry_space_group_name_H-M   'P 63/m'
_cell_angle_alpha                90
_cell_angle_beta                 90
_cell_angle_gamma                120
_cell_formula_units_Z            2
_cell_length_a                   9.5635
_cell_length_b                   9.5635
_cell_length_c                   7.0286
_cell_volume                     556.715
_citation_journal_id_ASTM        ZEKRDZ
_cod_data_source_file            Hartenbach_ZEKRDZ_2005_1623.cif
_cod_data_source_block           Nd4.69O13Si3
_cod_original_cell_volume        556.7154
_cod_database_code               8103910
loop_
_symmetry_equiv_pos_as_xyz
x,y,z
x-y,x,z+1/2
-y,x-y,z
-x,-y,z+1/2
-x+y,-x,z
y,-x+y,z+1/2
-x,-y,-z
-x+y,-x,-z-1/2
y,-x+y,-z
x,y,-z-1/2
x-y,x,-z
-y,x-y,-z-1/2
loop_
_atom_site_label
_atom_site_type_symbol
_atom_site_fract_x
_atom_site_fract_y
_atom_site_fract_z
_atom_site_occupancy
_atom_site_U_iso_or_equiv
O1 O-2 0.321 0.4848 0.25 1 0.0
Si1 Si+4 0.4001 0.371 0.25 1 0.0
Nd2 Nd+3 0.23168 0.98883 0.25 1 0.0
O3 O-2 0.3434 0.2519 0.0672 1 0.0
O4 O-2 0 0 0.25 1 0.0
O2 O-2 0.5957 0.4738 0.25 1 0.0
Nd1 Nd+3 0.3333 0.6667 0.99921 0.847 0.0
