#------------------------------------------------------------------------------
#$Date: 2015-09-18 02:30:20 +0300 (Fri, 18 Sep 2015) $
#$Revision: 157364 $
#$URL: svn://www.crystallography.net/cod/cif/8/10/37/8103766.cif $
#------------------------------------------------------------------------------
#
# This file is available in the Crystallography Open Database (COD),
# http://www.crystallography.net/
#
# All data on this site have been placed in the public domain by the
# contributors.
#
data_8103766
loop_
_publ_author_name
'McCauley, J.W.'
'Gibbs, G.V.'
_publ_section_title
;
 Redetermination of the chromium position in ruby
;
_journal_name_full
;
Zeitschrift fuer Kristallographie, Kristallgeometrie, Kristallphysik, 
Kristallchemie (-144,1977)
;
_journal_page_first              453
_journal_page_last               455
_journal_volume                  135
_journal_year                    1972
_chemical_formula_sum            'Al1.896 Cr0.104 O3'
_chemical_name_systematic        '(Al.948 Cr.052)2 O3'
_space_group_IT_number           167
_symmetry_space_group_name_Hall  '-R 3 2"c'
_symmetry_space_group_name_H-M   'R -3 c :H'
_cell_angle_alpha                90
_cell_angle_beta                 90
_cell_angle_gamma                120
_cell_formula_units_Z            6
_cell_length_a                   4.77
_cell_length_b                   4.77
_cell_length_c                   13.02
_cell_volume                     256.554
_citation_journal_id_ASTM        ZEKGAX
_cod_data_source_file            McCauley_ZEKGAX_1972_726.cif
_cod_data_source_block           Al1.896Cr0.104O3
_cod_original_cell_volume        256.5538
_cod_database_code               8103766
loop_
_symmetry_equiv_pos_as_xyz
x,y,z
-y,x-y,z
-x+y,-x,z
y,x,-z+1/2
-x,-x+y,-z+1/2
x-y,-y,-z+1/2
-x,-y,-z
y,-x+y,-z
x-y,x,-z
-y,-x,z-1/2
x,x-y,z-1/2
-x+y,y,z-1/2
x+2/3,y+1/3,z+1/3
-y+2/3,x-y+1/3,z+1/3
-x+y+2/3,-x+1/3,z+1/3
y+2/3,x+1/3,-z+5/6
-x+2/3,-x+y+1/3,-z+5/6
x-y+2/3,-y+1/3,-z+5/6
-x+2/3,-y+1/3,-z+1/3
y+2/3,-x+y+1/3,-z+1/3
x-y+2/3,x+1/3,-z+1/3
-y+2/3,-x+1/3,z-1/6
x+2/3,x-y+1/3,z-1/6
-x+y+2/3,y+1/3,z-1/6
x+1/3,y+2/3,z+2/3
-y+1/3,x-y+2/3,z+2/3
-x+y+1/3,-x+2/3,z+2/3
y+1/3,x+2/3,-z+7/6
-x+1/3,-x+y+2/3,-z+7/6
x-y+1/3,-y+2/3,-z+7/6
-x+1/3,-y+2/3,-z+2/3
y+1/3,-x+y+2/3,-z+2/3
x-y+1/3,x+2/3,-z+2/3
-y+1/3,-x+2/3,z+1/6
x+1/3,x-y+2/3,z+1/6
-x+y+1/3,y+2/3,z+1/6
loop_
_atom_site_label
_atom_site_type_symbol
_atom_site_fract_x
_atom_site_fract_y
_atom_site_fract_z
_atom_site_occupancy
_atom_site_U_iso_or_equiv
Cr1 Cr+3 0 0 0.3495 0.052 0.0
Al1 Al+3 0 0 0.3518 0.948 0.0
O1 O-2 0.3049 0 0.25 1 0.0
