#------------------------------------------------------------------------------
#$Date: 2016-02-13 21:28:24 +0200 (Sat, 13 Feb 2016) $
#$Revision: 176429 $
#$URL: svn://www.crystallography.net/cod/cif/8/10/36/8103607.cif $
#------------------------------------------------------------------------------
#
# This file is available in the Crystallography Open Database (COD),
# http://www.crystallography.net/
#
# All data on this site have been placed in the public domain by the
# contributors.
#
data_8103607
loop_
_publ_author_name
'Lehnert, H.'
'Boysen, H.'
'Schneider, J.'
'Frey, F.'
'Hohlwein, D.'
'Radaelli, P.'
'Ehrenberg, H.'
_publ_section_title
;
 A powder diffraction study of the phase transition in La Al O3
;
_journal_name_full
'Zeitschrift fuer Kristallographie (149,1979-)'
_journal_page_first              536
_journal_page_last               541
_journal_volume                  215
_journal_year                    2000
_chemical_formula_sum            'Al La O3'
_chemical_name_systematic        'La (Al O3)'
_space_group_IT_number           221
_symmetry_space_group_name_Hall  '-P 4 2 3'
_symmetry_space_group_name_H-M   'P m -3 m'
_cell_angle_alpha                90
_cell_angle_beta                 90
_cell_angle_gamma                90
_cell_formula_units_Z            1
_cell_length_a                   3.81593
_cell_length_b                   3.81593
_cell_length_c                   3.81593
_cell_volume                     55.565
_citation_journal_id_ASTM        ZEKRDZ
_cod_data_source_file            Lehnert_ZEKRDZ_2000_820.cif
_cod_data_source_block           Al1La1O3
_cod_original_cell_volume        55.56498
_cod_original_formula_sum        'Al1 La1 O3'
_cod_database_code               8103607
loop_
_symmetry_equiv_pos_as_xyz
x,y,z
-y,x,z
-x,-y,z
y,-x,z
x,-y,-z
y,x,-z
-x,y,-z
-y,-x,-z
z,x,y
-x,z,y
-z,-x,y
x,-z,y
z,-x,-y
x,z,-y
-z,x,-y
-x,-z,-y
y,z,x
y,-z,-x
z,y,-x
-y,z,-x
-z,-y,-x
-y,-z,x
z,-y,x
-z,y,x
-x,-y,-z
y,-x,-z
x,y,-z
-y,x,-z
-x,y,z
-y,-x,z
x,-y,z
y,x,z
-z,-x,-y
x,-z,-y
z,x,-y
-x,z,-y
-z,x,y
-x,-z,y
z,-x,y
x,z,y
-y,-z,-x
-y,z,x
-z,-y,x
y,-z,x
z,y,x
y,z,-x
-z,y,-x
z,-y,-x
loop_
_atom_site_label
_atom_site_type_symbol
_atom_site_fract_x
_atom_site_fract_y
_atom_site_fract_z
_atom_site_occupancy
_atom_site_U_iso_or_equiv
La1 La+3 0.5 0.5 0.5 1 0.0
O1 O-2 0.5 0 0 1 0.0
Al1 Al+3 0 0 0 1 0.0
