#------------------------------------------------------------------------------
#$Date: 2018-09-27 07:13:35 +0300 (Thu, 27 Sep 2018) $
#$Revision: 211196 $
#$URL: file:///home/coder/svn-repositories/cod/cif/8/10/36/8103682.cif $
#------------------------------------------------------------------------------
#
# This file is available in the Crystallography Open Database (COD),
# http://www.crystallography.net/
#
# All data on this site have been placed in the public domain by the
# contributors.
#
data_8103682
loop_
_publ_author_name
'Weitzel, H.'
_publ_section_title
;
 Kristallstrukturverfeinerung von Wolframiten und Columbiten
;
_journal_name_full
;
Zeitschrift fuer Kristallographie, Kristallgeometrie, Kristallphysik, 
Kristallchemie (-144,1977)
;
_journal_page_first              238
_journal_page_last               258
_journal_volume                  144
_journal_year                    1976
_chemical_formula_sum            'Mn Nb2 O6'
_space_group_IT_number           60
_symmetry_space_group_name_Hall  '-P 2n 2ab'
_symmetry_space_group_name_H-M   'P b c n'
_cell_angle_alpha                90
_cell_angle_beta                 90
_cell_angle_gamma                90
_cell_formula_units_Z            4
_cell_length_a                   14.4236
_cell_length_b                   5.7609
_cell_length_c                   5.0839
_cell_volume                     422.436
_citation_journal_id_ASTM        ZEKGAX
_cod_data_source_file            Weitzel_ZEKGAX_1976_1700.cif
_cod_data_source_block           Mn1Nb2O6
_cod_original_cell_volume        422.4361
_cod_original_formula_sum        'Mn1 Nb2 O6'
_cod_database_code               8103682
loop_
_symmetry_equiv_pos_as_xyz
x,y,z
-x+1/2,-y+1/2,z+1/2
x+1/2,-y+1/2,-z
-x,y,-z+1/2
-x,-y,-z
x-1/2,y-1/2,-z-1/2
-x-1/2,y-1/2,z
x,-y,z-1/2
loop_
_atom_site_label
_atom_site_type_symbol
_atom_site_fract_x
_atom_site_fract_y
_atom_site_fract_z
_atom_site_occupancy
_atom_site_U_iso_or_equiv
O3 O-2 0.2555 0.1248 0.5819 1 0.0
O2 O-2 0.0846 0.1178 0.9014 1 0.0
Mn1 Mn+2 0 0.1903 0.25 1 0.0
O1 O-2 0.0973 0.3976 0.4363 1 0.0
Nb1 Nb+5 0.1616 0.3206 0.7478 1 0.0
