#------------------------------------------------------------------------------
#$Date: 2015-07-07 14:22:44 +0300 (Tue, 07 Jul 2015) $
#$Revision: 140687 $
#$URL: svn://www.crystallography.net/cod/cif/8/10/35/8103507.cif $
#------------------------------------------------------------------------------
#
# This file is available in the Crystallography Open Database (COD),
# http://www.crystallography.net/
#
# All data on this site have been placed in the public domain by the
# contributors.
#
data_8103507
loop_
_publ_author_name
'Geiger, C.A.'
'Armbruster, T.'
_publ_section_title
;
 The crystal structure of a garnet solid solution (Ca0.9 Mg0.1)3 Al2(Si
 O4)3 at 295 K and 100 K: local site behaviour - dynamic and static
 disorder
;
_journal_name_full
'Zeitschrift fuer Kristallographie (149,1979-)'
_journal_page_first              211
_journal_page_last               215
_journal_volume                  214
_journal_year                    1999
_chemical_formula_sum            'Al2 Ca2.7 Mg0.3 O12 Si3'
_chemical_name_systematic        '(Ca0.9 Mg0.1)3 Al2 (Si O4)3'
_space_group_IT_number           230
_symmetry_space_group_name_Hall  '-I 4bd 2c 3'
_symmetry_space_group_name_H-M   'I a -3 d'
_cell_angle_alpha                90
_cell_angle_beta                 90
_cell_angle_gamma                90
_cell_formula_units_Z            8
_cell_length_a                   11.828
_cell_length_b                   11.828
_cell_length_c                   11.828
_cell_volume                     1654.756
_citation_journal_id_ASTM        ZEKRDZ
_cod_data_source_file            Geiger_ZEKRDZ_1999_903.cif
_cod_data_source_block           Al2Ca2.7Mg0.3O12Si3
_cod_database_code               8103507
loop_
_symmetry_equiv_pos_as_xyz
x,y,z
-y+1/4,x+3/4,z+1/4
-x+1/2,-y,z+1/2
y+1/4,-x+1/4,z+3/4
x,-y,-z+1/2
y+1/4,x+3/4,-z+3/4
-x+1/2,y,-z
-y+1/4,-x+1/4,-z+1/4
z,x,y
-x+1/4,z+3/4,y+1/4
-z+1/2,-x,y+1/2
x+1/4,-z+1/4,y+3/4
z,-x,-y+1/2
x+1/4,z+3/4,-y+3/4
-z+1/2,x,-y
-x+1/4,-z+1/4,-y+1/4
y,z,x
y+1/2,-z+1/2,-x
z+3/4,y+1/4,-x+1/4
-y,z+1/2,-x+1/2
-z+1/4,-y+1/4,-x+1/4
-y+1/2,-z,x+1/2
z+3/4,-y+3/4,x+1/4
-z+3/4,y+1/4,x+3/4
-x,-y,-z
y-1/4,-x-3/4,-z-1/4
x-1/2,y,-z-1/2
-y-1/4,x-1/4,-z-3/4
-x,y,z-1/2
-y-1/4,-x-3/4,z-3/4
x-1/2,-y,z
y-1/4,x-1/4,z-1/4
-z,-x,-y
x-1/4,-z-3/4,-y-1/4
z-1/2,x,-y-1/2
-x-1/4,z-1/4,-y-3/4
-z,x,y-1/2
-x-1/4,-z-3/4,y-3/4
z-1/2,-x,y
x-1/4,z-1/4,y-1/4
-y,-z,-x
-y-1/2,z-1/2,x
-z-3/4,-y-1/4,x-1/4
y,-z-1/2,x-1/2
z-1/4,y-1/4,x-1/4
y-1/2,z,-x-1/2
-z-3/4,y-3/4,-x-1/4
z-3/4,-y-1/4,-x-3/4
x+1/2,y+1/2,z+1/2
-y+3/4,x+5/4,z+3/4
-x+1,-y+1/2,z+1
y+3/4,-x+3/4,z+5/4
x+1/2,-y+1/2,-z+1
y+3/4,x+5/4,-z+5/4
-x+1,y+1/2,-z+1/2
-y+3/4,-x+3/4,-z+3/4
z+1/2,x+1/2,y+1/2
-x+3/4,z+5/4,y+3/4
-z+1,-x+1/2,y+1
x+3/4,-z+3/4,y+5/4
z+1/2,-x+1/2,-y+1
x+3/4,z+5/4,-y+5/4
-z+1,x+1/2,-y+1/2
-x+3/4,-z+3/4,-y+3/4
y+1/2,z+1/2,x+1/2
y+1,-z+1,-x+1/2
z+5/4,y+3/4,-x+3/4
-y+1/2,z+1,-x+1
-z+3/4,-y+3/4,-x+3/4
-y+1,-z+1/2,x+1
z+5/4,-y+5/4,x+3/4
-z+5/4,y+3/4,x+5/4
-x+1/2,-y+1/2,-z+1/2
y+1/4,-x-1/4,-z+1/4
x,y+1/2,-z
-y+1/4,x+1/4,-z-1/4
-x+1/2,y+1/2,z
-y+1/4,-x-1/4,z-1/4
x,-y+1/2,z+1/2
y+1/4,x+1/4,z+1/4
-z+1/2,-x+1/2,-y+1/2
x+1/4,-z-1/4,-y+1/4
z,x+1/2,-y
-x+1/4,z+1/4,-y-1/4
-z+1/2,x+1/2,y
-x+1/4,-z-1/4,y-1/4
z,-x+1/2,y+1/2
x+1/4,z+1/4,y+1/4
-y+1/2,-z+1/2,-x+1/2
-y,z,x+1/2
-z-1/4,-y+1/4,x+1/4
y+1/2,-z,x
z+1/4,y+1/4,x+1/4
y,z+1/2,-x
-z-1/4,y-1/4,-x+1/4
z-1/4,-y+1/4,-x-1/4
loop_
_atom_site_label
_atom_site_type_symbol
_atom_site_fract_x
_atom_site_fract_y
_atom_site_fract_z
_atom_site_occupancy
_atom_site_U_iso_or_equiv
O1 O-2 0.03802 0.04539 0.65132 1 0.0
Ca1 Ca+2 0.125 0 0.25 0.9 0.0
Mg1 Mg+2 0.125 0 0.25 0.1 0.0
Al1 Al+3 0 0 0 1 0.0
Si1 Si+4 0.375 0 0.25 1 0.0
