#------------------------------------------------------------------------------
#$Date: 2016-02-13 21:28:24 +0200 (Sat, 13 Feb 2016) $
#$Revision: 176429 $
#$URL: svn://www.crystallography.net/cod/cif/8/10/35/8103521.cif $
#------------------------------------------------------------------------------
#
# This file is available in the Crystallography Open Database (COD),
# http://www.crystallography.net/
#
# All data on this site have been placed in the public domain by the
# contributors.
#
data_8103521
loop_
_publ_author_name
'Abs-Wurmbach, I.'
'Langer, K.'
'Tillmanns, E.'
'Seifert, F.'
_publ_section_title
;
 The crystal chemistry of (Mn(3+),Fe(3+))-substituted Andalusites
 (Viridines and Kanonaite), (Al(1-x-y) Mn(3+)x Fe(3+)y (O (Si O4)):
 crystal structure, Moessbauer and polarized optical absorption spectra
;
_journal_name_full
'Zeitschrift fuer Kristallographie (149,1979-)'
_journal_page_first              81
_journal_page_last               113
_journal_volume                  155
_journal_year                    1981
_chemical_formula_sum            'Al1.756 Fe0.062 Mn0.182 O5 Si'
_chemical_name_systematic        'Al1.756 Mn0.182 Fe0.062 (O (Si O4))'
_space_group_IT_number           58
_symmetry_space_group_name_Hall  '-P 2 2n'
_symmetry_space_group_name_H-M   'P n n m'
_cell_angle_alpha                90
_cell_angle_beta                 90
_cell_angle_gamma                90
_cell_formula_units_Z            4
_cell_length_a                   7.842
_cell_length_b                   7.94
_cell_length_c                   5.582
_cell_volume                     347.566
_citation_journal_id_ASTM        ZEKRDZ
_cod_data_source_file            Abs-Wurmbach_ZEKRDZ_1981_303.cif
_cod_data_source_block           Al1.756Fe0.062Mn0.182O5Si1
_cod_original_cell_volume        347.5659
_cod_original_formula_sum        'Al1.756 Fe0.062 Mn0.182 O5 Si1'
_cod_database_code               8103521
loop_
_symmetry_equiv_pos_as_xyz
x,y,z
-x,-y,z
x+1/2,-y+1/2,-z+1/2
-x+1/2,y+1/2,-z+1/2
-x,-y,-z
x,y,-z
-x-1/2,y-1/2,z-1/2
x-1/2,-y-1/2,z-1/2
loop_
_atom_site_label
_atom_site_type_symbol
_atom_site_fract_x
_atom_site_fract_y
_atom_site_fract_z
_atom_site_occupancy
_atom_site_U_iso_or_equiv
O4 O-2 0.2339 0.1359 0.2391 1 0.0
Si1 Si+4 0.2469 0.2527 0 1 0.0
O3 O-2 0.1032 0.3996 0 1 0.0
O2 O-2 0.4245 0.3624 0 1 0.0
O1 O-2 0.4238 0.3628 0.5 1 0.0
Fe1 Fe+3 0 0 0.2425 0.062 0.0
Al1 Al+3 0 0 0.2425 0.756 0.0
Mn1 Mn+3 0 0 0.2425 0.182 0.0
Al2 Al+3 0.3715 0.1384 0.5 1 0.0
