#------------------------------------------------------------------------------
#$Date: 2015-10-10 07:26:33 +0300 (Sat, 10 Oct 2015) $
#$Revision: 164939 $
#$URL: svn://www.crystallography.net/cod/cif/8/10/41/8104175.cif $
#------------------------------------------------------------------------------
#
# This file is available in the Crystallography Open Database (COD),
# http://www.crystallography.net/
#
# All data on this site have been placed in the public domain by the
# contributors.
#
data_8104175
loop_
_publ_author_name
'Fischer, R.X.'
'Schneider, H.'
_publ_section_title
;
 Crystal chemistry of iron containing germanium andalusites,
 FexAl8-xGe4O20
;
_journal_name_full
'Zeitschrift fuer Kristallographie (149,1979-)'
_journal_page_first              19
_journal_page_last               36
_journal_volume                  201
_journal_year                    1992
_chemical_formula_sum            'Al4.34 Fe3.66 Ge3.86 O19.72'
_chemical_name_systematic        'Fe3.66 Al4.34 Ge3.86 O19.72'
_space_group_IT_number           58
_symmetry_space_group_name_Hall  '-P 2 2n'
_symmetry_space_group_name_H-M   'P n n m'
_cell_angle_alpha                90
_cell_angle_beta                 90
_cell_angle_gamma                90
_cell_formula_units_Z            1
_cell_length_a                   8.0655
_cell_length_b                   8.1954
_cell_length_c                   5.8019
_cell_volume                     383.506
_citation_journal_id_ASTM        ZEKRDZ
_cod_data_source_file            Fischer_ZEKRDZ_1992_51.cif
_cod_data_source_block           Al4.34Fe3.66Ge3.86O19.72
_cod_original_cell_volume        383.5056
_cod_database_code               8104175
loop_
_symmetry_equiv_pos_as_xyz
x,y,z
-x,-y,z
x+1/2,-y+1/2,-z+1/2
-x+1/2,y+1/2,-z+1/2
-x,-y,-z
x,y,-z
-x-1/2,y-1/2,z-1/2
x-1/2,-y-1/2,z-1/2
loop_
_atom_site_label
_atom_site_type_symbol
_atom_site_fract_x
_atom_site_fract_y
_atom_site_fract_z
_atom_site_occupancy
_atom_site_U_iso_or_equiv
O3 O-2 0.0973 0.3978 0 0.986 0.0
Al2 Al+3 0.3682 0.1379 0.5 0.655 0.0
O2 O-2 0.4348 0.3576 0 0.986 0.0
Fe1 Fe+3 0 0 0.2466 0.57 0.0
O1 O-2 0.4211 0.3536 0.5 0.986 0.0
Al1 Al+3 0 0 0.2466 0.43 0.0
Ge1 Ge+4 0.2459 0.2483 0 0.965 0.0
O4 O-2 0.2325 0.1312 0.2531 0.986 0.0
Fe2 Fe+3 0.3682 0.1379 0.5 0.345 0.0
