#------------------------------------------------------------------------------
#$Date: 2016-02-16 14:49:47 +0200 (Tue, 16 Feb 2016) $
#$Revision: 176465 $
#$URL: svn://www.crystallography.net/cod/cif/9/00/05/9000559.cif $
#------------------------------------------------------------------------------
#
# This file is available in the Crystallography Open Database (COD),
# http://www.crystallography.net/. The original data for this entry
# were provided the American Mineralogist Crystal Structure Database,
# http://rruff.geo.arizona.edu/AMS/amcsd.php
#
# The file may be used within the scientific community so long as
# proper attribution is given to the journal article from which the
# data were obtained.
#
data_9000559
loop_
_publ_author_name
'Hazen, R. M.'
_publ_section_title
;Effects of temperature and pressure on the crystal structure of
 ferromagnesian olivine T = 23 C, P = 1 atm , Evacuated silica capillary
;
_journal_name_full               'American Mineralogist'
_journal_page_first              286
_journal_page_last               295
_journal_volume                  62
_journal_year                    1977
_chemical_formula_structural     'Fe2 (Si O4)'
_chemical_formula_sum            'Fe2 O4 Si'
_chemical_name_mineral           Fayalite
_space_group_IT_number           62
_symmetry_space_group_name_Hall  '-P 2c 2ab'
_symmetry_space_group_name_H-M   'P b n m'
_cell_angle_alpha                90
_cell_angle_beta                 90
_cell_angle_gamma                90
_cell_length_a                   4.798
_cell_length_b                   10.390
_cell_length_c                   6.055
_cell_volume                     301.849
_diffrn_ambient_pressure         100
_diffrn_ambient_temperature      296.15
_exptl_crystal_density_diffrn    4.484
_cod_original_formula_sum        'Fe2 Si O4'
_cod_database_code               9000559
loop_
_symmetry_equiv_pos_as_xyz
x,y,z
x,y,1/2-z
-x,-y,1/2+z
1/2+x,1/2-y,1/2+z
1/2-x,1/2+y,1/2-z
1/2-x,1/2+y,z
1/2+x,1/2-y,-z
-x,-y,-z
loop_
_atom_site_aniso_label
_atom_site_aniso_U_11
_atom_site_aniso_U_22
_atom_site_aniso_U_33
_atom_site_aniso_U_12
_atom_site_aniso_U_13
_atom_site_aniso_U_23
Fe1 0.00362 0.00820 0.00520 0.00025 -0.00103 0.00159
Fe2 0.00443 0.00383 0.00446 0.00025 0.00000 0.00000
Si 0.00222 0.00547 0.00520 0.00000 0.00000 0.00000
O1 0.00303 0.00930 0.00594 0.00025 0.00000 0.00000
O2 0.00793 0.00383 0.00724 0.00025 0.00000 0.00000
O3 0.00595 0.00820 0.00669 0.00152 0.00029 0.00159
loop_
_atom_site_label
_atom_site_fract_x
_atom_site_fract_y
_atom_site_fract_z
Fe1 0.00000 0.00000 0.00000
Fe2 0.98670 0.27920 0.25000
Si 0.42870 0.09570 0.25000
O1 0.76610 0.09180 0.25000
O2 0.21270 0.45140 0.25000
O3 0.28440 0.16330 0.03570
