#------------------------------------------------------------------------------
#$Date: 2016-02-16 14:49:47 +0200 (Tue, 16 Feb 2016) $
#$Revision: 176465 $
#$URL: svn://www.crystallography.net/cod/cif/9/00/02/9000235.cif $
#------------------------------------------------------------------------------
#
# This file is available in the Crystallography Open Database (COD),
# http://www.crystallography.net/. The original data for this entry
# were provided the American Mineralogist Crystal Structure Database,
# http://rruff.geo.arizona.edu/AMS/amcsd.php
#
# The file may be used within the scientific community so long as
# proper attribution is given to the journal article from which the
# data were obtained.
#
data_9000235
loop_
_publ_author_name
'Novak, G. A.'
'Gibbs, G. V.'
_publ_section_title
;
 The crystal chemistry of the silicate garnets
 sample Mn-Gr
;
_journal_name_full               'American Mineralogist'
_journal_page_first              791
_journal_page_last               825
_journal_volume                  56
_journal_year                    1971
_chemical_formula_sum            'Al2 Ca1.35 Fe0.84 Mn0.81 O12 Si3'
_chemical_name_mineral           Grossular
_space_group_IT_number           230
_symmetry_space_group_name_Hall  '-I 4bd 2c 3'
_symmetry_space_group_name_H-M   'I a -3 d'
_cell_angle_alpha                90
_cell_angle_beta                 90
_cell_angle_gamma                90
_cell_length_a                   11.690
_cell_length_b                   11.690
_cell_length_c                   11.690
_cell_volume                     1597.510
_exptl_crystal_density_diffrn    3.956
_cod_original_formula_sum        'Si3 Al2 (Ca1.35 Fe.84 Mn.81) O12'
_cod_database_code               9000235
loop_
_symmetry_equiv_pos_as_xyz
x,y,z
1/2+x,1/2+y,1/2+z
z,1/2-x,1/2+y
1/2+z,-x,+y
-y,1/2+z,1/2-x
1/2-y,+z,-x
x,1/2-y,1/2+z
1/2+x,-y,+z
-z,1/2+x,1/2-y
1/2-z,+x,-y
y,1/2-z,1/2+x
1/2+y,-z,+x
-x,1/2+y,1/2-z
1/2-x,+y,-z
3/4+x,1/4-z,3/4-y
1/4+x,3/4-z,1/4-y
3/4-z,1/4+y,3/4+x
1/4-z,3/4+y,1/4+x
3/4+y,1/4-x,3/4-z
1/4+y,3/4-x,1/4-z
3/4-x,1/4+z,3/4+y
1/4-x,3/4+z,1/4+y
3/4+z,1/4-y,3/4-x
1/4+z,3/4-y,1/4-x
3/4-y,1/4+x,3/4+z
1/4-y,3/4+x,1/4+z
1/4+x,1/4+z,1/4+y
3/4+x,3/4+z,3/4+y
1/4-z,1/4-y,1/4-x
3/4-z,3/4-y,3/4-x
1/4+y,1/4+x,1/4+z
3/4+y,3/4+x,3/4+z
1/4-x,1/4-z,1/4-y
3/4-x,3/4-z,3/4-y
1/4+z,1/4+y,1/4+x
3/4+z,3/4+y,3/4+x
1/4-y,1/4-x,1/4-z
3/4-y,3/4-x,3/4-z
1/2+z,x,1/2-y
+z,1/2+x,-y
1/2-y,-z,1/2+x
-y,1/2-z,+x
1/2+x,y,1/2-z
+x,1/2+y,-z
1/2-z,-x,1/2+y
-z,1/2-x,+y
1/2+y,z,1/2-x
+y,1/2+z,-x
1/2-x,-y,1/2+z
-x,1/2-y,+z
1/2-z,1/2+x,y
-z,+x,1/2+y
1/2+y,1/2-z,-x
+y,-z,1/2-x
1/2-x,1/2+y,z
-x,+y,1/2+z
1/2+z,1/2-x,-y
+z,-x,1/2-y
1/2-y,1/2+z,x
-y,+z,1/2+x
1/2+x,1/2-y,-z
+x,-y,1/2-z
3/4-x,3/4+z,1/4-y
1/4-x,1/4+z,3/4-y
3/4+z,3/4-y,1/4+x
1/4+z,1/4-y,3/4+x
3/4-y,3/4+x,1/4-z
1/4-y,1/4+x,3/4-z
3/4+x,3/4-z,1/4+y
1/4+x,1/4-z,3/4+y
3/4-z,3/4+y,1/4-x
1/4-z,1/4+y,3/4-x
3/4+y,3/4-x,1/4+z
1/4+y,1/4-x,3/4+z
1/4-x,3/4-z,3/4+y
3/4-x,1/4-z,1/4+y
1/4+z,3/4+y,3/4-x
3/4+z,1/4+y,1/4-x
1/4-y,3/4-x,3/4+z
3/4-y,1/4-x,1/4+z
1/4+x,3/4+z,3/4-y
3/4+x,1/4+z,1/4-y
1/4-z,3/4-y,3/4+x
3/4-z,1/4-y,1/4+x
1/4+y,3/4+x,3/4-z
3/4+y,1/4+x,1/4-z
-z,-x,-y
1/2-z,1/2-x,1/2-y
y,z,x
1/2+y,1/2+z,1/2+x
-x,-y,-z
1/2-x,1/2-y,1/2-z
z,x,y
1/2+z,1/2+x,1/2+y
-y,-z,-x
1/2-y,1/2-z,1/2-x
loop_
_atom_site_aniso_label
_atom_site_aniso_U_11
_atom_site_aniso_U_22
_atom_site_aniso_U_33
_atom_site_aniso_U_12
_atom_site_aniso_U_13
_atom_site_aniso_U_23
Si 0.00817 0.03669 0.03669 0.00000 0.00000 0.00000
Al 0.00775 0.00775 0.00775 -0.00014 -0.00014 -0.00014
Ca 0.00838 0.01142 0.01142 0.00000 0.00000 0.00062
Fe 0.00838 0.01142 0.01142 0.00000 0.00000 0.00062
Mn 0.00838 0.01142 0.01142 0.00000 0.00000 0.00062
O 0.01142 0.01032 0.01343 0.00021 0.00021 -0.00111
loop_
_atom_site_label
_atom_site_fract_x
_atom_site_fract_y
_atom_site_fract_z
_atom_site_occupancy
Si 0.37500 0.00000 0.25000 1.00000
Al 0.00000 0.00000 0.00000 1.00000
Ca 0.12500 0.00000 0.25000 0.45000
Fe 0.12500 0.00000 0.25000 0.28000
Mn 0.12500 0.00000 0.25000 0.27000
O 0.03577 0.04633 0.65177 1.00000
