#------------------------------------------------------------------------------
#$Date: 2016-02-16 14:49:47 +0200 (Tue, 16 Feb 2016) $
#$Revision: 176465 $
#$URL: svn://www.crystallography.net/cod/cif/9/00/12/9001214.cif $
#------------------------------------------------------------------------------
#
# This file is available in the Crystallography Open Database (COD),
# http://www.crystallography.net/. The original data for this entry
# were provided the American Mineralogist Crystal Structure Database,
# http://rruff.geo.arizona.edu/AMS/amcsd.php
#
# The file may be used within the scientific community so long as
# proper attribution is given to the journal article from which the
# data were obtained.
#
data_9001214
loop_
_publ_author_name
'Molin, G. M.'
_publ_section_title
;
 Crystal-chemical study of cation disordering in Al-rich and Al-poor
 orthopyroxenes from spinel lherzolite xenoliths
 sample Le9A, natural
;
_journal_name_full               'American Mineralogist'
_journal_page_first              593
_journal_page_last               598
_journal_volume                  74
_journal_year                    1989
_chemical_formula_sum            'Fe0.085 Mg0.915 O3 Si'
_chemical_name_mineral           Pyroxene
_space_group_IT_number           61
_symmetry_space_group_name_Hall  '-P 2ac 2ab'
_symmetry_space_group_name_H-M   'P b c a'
_cell_angle_alpha                90
_cell_angle_beta                 90
_cell_angle_gamma                90
_cell_length_a                   18.246
_cell_length_b                   8.828
_cell_length_c                   5.189
_cell_volume                     835.822
_exptl_crystal_density_diffrn    3.276
_cod_original_formula_sum        '(Mg.915 Fe.085) Si O3'
_cod_database_code               9001214
loop_
_symmetry_equiv_pos_as_xyz
x,y,z
x,1/2-y,1/2+z
-x,1/2+y,1/2-z
1/2-x,1/2+y,z
1/2+x,1/2-y,-z
1/2+x,y,1/2-z
1/2-x,-y,1/2+z
-x,-y,-z
loop_
_atom_site_aniso_label
_atom_site_aniso_U_11
_atom_site_aniso_U_22
_atom_site_aniso_U_33
_atom_site_aniso_U_12
_atom_site_aniso_U_13
_atom_site_aniso_U_23
Mg1 0.00790 0.00860 0.00650 -0.00020 -0.00050 0.00000
Fe1 0.00790 0.00860 0.00650 -0.00020 -0.00050 0.00000
Mg2 0.01090 0.01120 0.00810 -0.00110 -0.00150 0.00030
Fe2 0.01090 0.01120 0.00810 -0.00110 -0.00150 0.00030
SiA 0.00660 0.00790 0.00650 -0.00050 0.00020 -0.00020
SiB 0.00680 0.00770 0.00670 0.00030 -0.00040 -0.00010
O1 0.00660 0.00950 0.00820 -0.00050 0.00070 0.00000
O2 0.01010 0.00760 0.00780 -0.00160 -0.00100 0.00050
O3 0.00850 0.01100 0.00810 0.00030 0.00010 -0.00240
O4 0.00640 0.00960 0.00810 -0.00030 -0.00100 0.00070
O5 0.00990 0.01050 0.00890 0.00200 -0.00020 0.00020
O6 0.00840 0.01150 0.00830 0.00020 0.00050 -0.00240
loop_
_atom_site_label
_atom_site_fract_x
_atom_site_fract_y
_atom_site_fract_z
_atom_site_occupancy
Mg1 0.37580 0.65410 0.86660 0.97200
Fe1 0.37580 0.65410 0.86660 0.02800
Mg2 0.37750 0.48490 0.36010 0.85800
Fe2 0.37750 0.48490 0.36010 0.14200
SiA 0.27150 0.34150 0.04960 1.00000
SiB 0.47360 0.33710 0.79880 1.00000
O1 0.18330 0.33970 0.03600 1.00000
O2 0.31100 0.50240 0.04470 1.00000
O3 0.30280 0.22430 0.82870 1.00000
O4 0.56250 0.33930 0.80060 1.00000
O5 0.43310 0.48360 0.69070 1.00000
O6 0.44760 0.19610 0.60310 1.00000
