#------------------------------------------------------------------------------
#$Date: 2016-02-16 14:49:47 +0200 (Tue, 16 Feb 2016) $
#$Revision: 176465 $
#$URL: svn://www.crystallography.net/cod/cif/9/00/12/9001204.cif $
#------------------------------------------------------------------------------
#
# This file is available in the Crystallography Open Database (COD),
# http://www.crystallography.net/. The original data for this entry
# were provided the American Mineralogist Crystal Structure Database,
# http://rruff.geo.arizona.edu/AMS/amcsd.php
#
# The file may be used within the scientific community so long as
# proper attribution is given to the journal article from which the
# data were obtained.
#
data_9001204
loop_
_publ_author_name
'Ottonello, G.'
'Della Giusta, A.'
'Molin, G. M.'
_publ_section_title
;
 Cation ordering in Ni-Mg olivines
 sample Ni.75, synthesized at 910 C, then quenched
 Mg.505Ni1.492SiO4
;
_journal_name_full               'American Mineralogist'
_journal_page_first              411
_journal_page_last               421
_journal_volume                  74
_journal_year                    1989
_chemical_formula_sum            'Mg0.45 Ni1.55 O4 Si'
_chemical_name_mineral           Olivine
_space_group_IT_number           62
_symmetry_space_group_name_Hall  '-P 2c 2ab'
_symmetry_space_group_name_H-M   'P b n m'
_cell_angle_alpha                90
_cell_angle_beta                 90
_cell_angle_gamma                90
_cell_length_a                   4.7339
_cell_length_b                   10.1583
_cell_length_c                   5.9303
_cell_volume                     285.178
_exptl_crystal_density_diffrn    4.518
_exptl_crystal_thermal_history   'synthesized at 910 C, then quenched'
_cod_original_cell_volume        285.179
_cod_original_formula_sum        '(Ni1.55 Mg.45) Si O4'
_cod_database_code               9001204
loop_
_symmetry_equiv_pos_as_xyz
x,y,z
x,y,1/2-z
-x,-y,1/2+z
1/2+x,1/2-y,1/2+z
1/2-x,1/2+y,1/2-z
1/2-x,1/2+y,z
1/2+x,1/2-y,-z
-x,-y,-z
loop_
_atom_site_label
_atom_site_fract_x
_atom_site_fract_y
_atom_site_fract_z
_atom_site_occupancy
_atom_site_U_iso_or_equiv
Ni1 0.00000 0.00000 0.00000 0.95000 0.00697
Mg1 0.00000 0.00000 0.00000 0.05000 0.00697
Ni2 0.99190 0.27420 0.25000 0.60000 0.00760
Mg2 0.99190 0.27420 0.25000 0.40000 0.00760
Si 0.42660 0.09380 0.25000 1.00000 0.00659
O1 0.76690 0.09320 0.25000 1.00000 0.00735
O2 0.21890 0.44510 0.25000 1.00000 0.00773
O3 0.27440 0.16270 0.03150 1.00000 0.00735
