#------------------------------------------------------------------------------
#$Date: 2017-01-24 14:42:25 +0200 (Tue, 24 Jan 2017) $
#$Revision: 190882 $
#$URL: file:///home/coder/svn-repositories/cod/cif/9/00/11/9001131.cif $
#------------------------------------------------------------------------------
#
# This file is available in the Crystallography Open Database (COD),
# http://www.crystallography.net/. The original data for this entry
# were provided the American Mineralogist Crystal Structure Database,
# http://rruff.geo.arizona.edu/AMS/amcsd.php
#
# The file may be used within the scientific community so long as
# proper attribution is given to the journal article from which the
# data were obtained.
#
data_9001131
loop_
_publ_author_name
'Armbruster, T.'
'Oberhansli, R.'
_publ_section_title
;Crystal chemistry of double-ring silicates: Structural, chemical, and optical
 variation in osumilites Japan-Hayasaki
;
_journal_name_full               'American Mineralogist'
_journal_page_first              585
_journal_page_last               594
_journal_volume                  73
_journal_year                    1988
_chemical_formula_sum            'Al4.47 Fe1.37 K0.76 Mg0.84 O30 Si10.32'
_chemical_name_mineral           Osumilite
_space_group_IT_number           192
_symmetry_space_group_name_Hall  '-P 6 2c'
_symmetry_space_group_name_H-M   'P 6/m c c'
_cell_angle_alpha                90
_cell_angle_beta                 90
_cell_angle_gamma                120
_cell_length_a                   10.150
_cell_length_b                   10.150
_cell_length_c                   14.286
_cell_volume                     1274.598
_exptl_crystal_density_diffrn    2.650
_cod_original_formula_sum        'K.76 Fe1.37 Mg.84 Si10.32 Al4.47 O30'
_cod_database_code               9001131
_cod_depositor_comments
;
 Adding the _atom_site_type_symbol data item.

 Antanas Vaitkus,
 2017-01-24
;
loop_
_symmetry_equiv_pos_as_xyz
x,y,z
-x,-x+y,1/2+z
x,x-y,1/2-z
-x+y,-x,-z
x-y,x,z
-y,-x,1/2+z
y,x,1/2-z
y,-x+y,-z
-y,x-y,z
x-y,-y,1/2+z
-x+y,y,1/2-z
x,y,-z
-x,-y,z
x,x-y,1/2+z
-x,-x+y,1/2-z
x-y,x,-z
-x+y,-x,z
y,x,1/2+z
-y,-x,1/2-z
-y,x-y,-z
y,-x+y,z
-x+y,y,1/2+z
x-y,-y,1/2-z
-x,-y,-z
loop_
_atom_site_aniso_label
_atom_site_aniso_U_11
_atom_site_aniso_U_22
_atom_site_aniso_U_33
_atom_site_aniso_U_12
_atom_site_aniso_U_13
_atom_site_aniso_U_23
KC 0.03100 0.03100 0.03400 0.01550 0.00000 0.00000
FeA 0.00660 0.00660 0.00970 0.00330 0.00000 0.00000
MgA 0.00660 0.00660 0.00970 0.00330 0.00000 0.00000
Si1 0.08800 0.01050 0.00690 0.00560 0.00140 0.00140
Al1 0.08800 0.01050 0.00690 0.00560 0.00140 0.00140
Fe2 0.01050 0.01050 0.00690 0.00800 0.00000 0.00000
Al2 0.01050 0.01050 0.00690 0.00800 0.00000 0.00000
O1 0.02700 0.01900 0.00800 0.01000 0.00000 0.00000
O2 0.02500 0.03500 0.02330 0.02390 -0.00110 -0.00360
O3 0.01590 0.01670 0.01230 0.00980 -0.00300 -0.00480
loop_
_atom_site_label
_atom_site_type_symbol
_atom_site_fract_x
_atom_site_fract_y
_atom_site_fract_z
_atom_site_occupancy
KC K 0.00000 0.00000 0.25000 0.76000
FeA Fe 0.33333 0.66667 0.25000 0.58000
MgA Mg 0.33333 0.66667 0.25000 0.42000
Si1 Si 0.24738 0.35055 0.39187 0.86000
Al1 Al 0.24738 0.35055 0.39187 0.14000
Fe2 Fe 0.50000 0.50000 0.25000 0.07000
Al2 Al 0.50000 0.50000 0.25000 0.93000
O1 O 0.11980 0.40410 0.00000 1.00000
O2 O 0.21440 0.28300 0.13190 1.00000
O3 O 0.13710 0.49050 0.17890 1.00000
