#------------------------------------------------------------------------------
#$Date: 2016-02-16 14:49:47 +0200 (Tue, 16 Feb 2016) $
#$Revision: 176465 $
#$URL: svn://www.crystallography.net/cod/cif/9/00/15/9001535.cif $
#------------------------------------------------------------------------------
#
# This file is available in the Crystallography Open Database (COD),
# http://www.crystallography.net/. The original data for this entry
# were provided the American Mineralogist Crystal Structure Database,
# http://rruff.geo.arizona.edu/AMS/amcsd.php
#
# The file may be used within the scientific community so long as
# proper attribution is given to the journal article from which the
# data were obtained.
#
data_9001535
loop_
_publ_author_name
'Dollase, W. A.'
'Ross, C. R.'
_publ_section_title
;
 Crystal structures of the body-centered tetragonal tectosilicates:
 K1.14Mg0.57Si1.43O4, K1.10Zn0.55Si1.45O4, and K1.11Fe1.11Si0.89O4
 Sample: Fe-rich phase
;
_journal_name_full               'American Mineralogist'
_journal_page_first              627
_journal_page_last               632
_journal_volume                  78
_journal_year                    1993
_chemical_formula_sum            'Fe2.22 K2.22 O8 Si1.78'
_chemical_name_mineral           BCTT
_space_group_IT_number           107
_symmetry_space_group_name_Hall  'I 4 -2'
_symmetry_space_group_name_H-M   'I 4 m m'
_cell_angle_alpha                90
_cell_angle_beta                 90
_cell_angle_gamma                90
_cell_length_a                   9.102
_cell_length_b                   9.102
_cell_length_c                   5.341
_cell_volume                     442.483
_exptl_crystal_density_diffrn    2.918
_cod_original_formula_sum        'K2.22 (Fe2.22 Si1.78) O8'
_cod_database_code               9001535
loop_
_symmetry_equiv_pos_as_xyz
x,y,z
1/2+x,1/2+y,1/2+z
-y,-x,z
1/2-y,1/2-x,1/2+z
-y,x,z
1/2-y,1/2+x,1/2+z
x,-y,z
1/2+x,1/2-y,1/2+z
-x,-y,z
1/2-x,1/2-y,1/2+z
y,x,z
1/2+y,1/2+x,1/2+z
y,-x,z
1/2+y,1/2-x,1/2+z
-x,y,z
1/2-x,1/2+y,1/2+z
loop_
_atom_site_aniso_label
_atom_site_aniso_U_11
_atom_site_aniso_U_22
_atom_site_aniso_U_33
_atom_site_aniso_U_12
_atom_site_aniso_U_13
_atom_site_aniso_U_23
K1 0.01679 0.00420 0.69368 0.00000 0.00000 0.00000
K2 0.01679 0.01679 0.02023 0.00000 0.00000 0.00000
Fe 0.02518 0.02518 0.03035 -0.00420 -0.01231 -0.01231
Si 0.02518 0.02518 0.03035 -0.00420 -0.01231 -0.01231
O1 0.07974 0.02099 0.08382 0.00000 0.01231 0.00000
O2 0.02938 0.02938 0.04046 -0.00420 -0.01478 -0.01478
loop_
_atom_site_label
_atom_site_fract_x
_atom_site_fract_y
_atom_site_fract_z
_atom_site_occupancy
K1 0.00000 0.50000 0.31600 0.61000
K2 0.00000 0.00000 0.49600 1.00000
Fe 0.18180 0.18180 0.00000 0.55500
Si 0.18180 0.18180 0.00000 0.44500
O1 0.22120 0.00000 0.07900 1.00000
O2 0.29380 0.29380 0.18000 1.00000
