#------------------------------------------------------------------------------
#$Date: 2016-02-16 14:49:47 +0200 (Tue, 16 Feb 2016) $
#$Revision: 176465 $
#$URL: svn://www.crystallography.net/cod/cif/9/00/10/9001065.cif $
#------------------------------------------------------------------------------
#
# This file is available in the Crystallography Open Database (COD),
# http://www.crystallography.net/. The original data for this entry
# were provided the American Mineralogist Crystal Structure Database,
# http://rruff.geo.arizona.edu/AMS/amcsd.php
#
# The file may be used within the scientific community so long as
# proper attribution is given to the journal article from which the
# data were obtained.
#
data_9001065
loop_
_publ_author_name
'Miyake, M.'
'Nakamura, H.'
'Kojima, H.'
'Marumo, F.'
_publ_section_title
;
 Cation ordering in Co-Mg olivine solid-solution series
 Sample: Co05
;
_journal_name_full               'American Mineralogist'
_journal_page_first              594
_journal_page_last               598
_journal_volume                  72
_journal_year                    1987
_chemical_formula_sum            'Co0.401 Mg1.599 O4 Si'
_chemical_name_mineral           Olivine
_space_group_IT_number           62
_symmetry_space_group_name_Hall  '-P 2c 2ab'
_symmetry_space_group_name_H-M   'P b n m'
_cell_angle_alpha                90
_cell_angle_beta                 90
_cell_angle_gamma                90
_cell_length_a                   4.765
_cell_length_b                   10.225
_cell_length_c                   5.986
_cell_volume                     291.651
_exptl_crystal_density_diffrn    3.520
_cod_original_formula_sum        '(Co.401 Mg1.599) Si O4'
_cod_database_code               9001065
loop_
_symmetry_equiv_pos_as_xyz
x,y,z
x,y,1/2-z
-x,-y,1/2+z
1/2+x,1/2-y,1/2+z
1/2-x,1/2+y,1/2-z
1/2-x,1/2+y,z
1/2+x,1/2-y,-z
-x,-y,-z
loop_
_atom_site_aniso_label
_atom_site_aniso_U_11
_atom_site_aniso_U_22
_atom_site_aniso_U_33
_atom_site_aniso_U_12
_atom_site_aniso_U_13
_atom_site_aniso_U_23
Co1 0.00400 0.00630 0.00450 -0.00020 -0.00050 -0.00110
Mg1 0.00400 0.00630 0.00450 -0.00020 -0.00050 -0.00110
Co2 0.00490 0.00420 0.00540 0.00030 0.00000 0.00000
Mg2 0.00490 0.00420 0.00540 0.00030 0.00000 0.00000
Si 0.00290 0.00410 0.00430 0.00010 0.00000 0.00000
O1 0.00330 0.00720 0.00580 0.00050 0.00000 0.00000
O2 0.00530 0.00440 0.00670 0.00010 0.00000 0.00000
O3 0.00510 0.00680 0.00520 0.00040 -0.00020 0.00160
loop_
_atom_site_label
_atom_site_fract_x
_atom_site_fract_y
_atom_site_fract_z
_atom_site_occupancy
Co1 0.00000 0.00000 0.00000 0.31600
Mg1 0.00000 0.00000 0.00000 0.68400
Co2 0.99110 0.27700 0.25000 0.08500
Mg2 0.99110 0.27700 0.25000 0.91500
Si 0.42680 0.09440 0.25000 1.00000
O1 0.76660 0.09230 0.25000 1.00000
O2 0.21860 0.44750 0.25000 1.00000
O3 0.27870 0.16350 0.03340 1.00000
