#------------------------------------------------------------------------------
#$Date: 2016-02-16 14:49:47 +0200 (Tue, 16 Feb 2016) $
#$Revision: 176465 $
#$URL: svn://www.crystallography.net/cod/cif/9/00/11/9001156.cif $
#------------------------------------------------------------------------------
#
# This file is available in the Crystallography Open Database (COD),
# http://www.crystallography.net/. The original data for this entry
# were provided the American Mineralogist Crystal Structure Database,
# http://rruff.geo.arizona.edu/AMS/amcsd.php
#
# The file may be used within the scientific community so long as
# proper attribution is given to the journal article from which the
# data were obtained.
#
data_9001156
loop_
_publ_author_name
'Aurisicchio, C.'
'Fioravanti, G.'
'Grubessi, O.'
'Zanazzi, P. F.'
_publ_section_title
;
 Reappraisal of the crystal chemistry of beryl
 Sample: 12
 Note: U(1,2) for Na altered to match symmetry constraints.
;
_journal_name_full               'American Mineralogist'
_journal_page_first              826
_journal_page_last               837
_journal_volume                  73
_journal_year                    1988
_chemical_formula_sum
'Al1.917 Be2.937 Fe0.092 Li0.03 Na0.067 O18 Si6.024'
_chemical_name_mineral           Beryl
_space_group_IT_number           192
_symmetry_space_group_name_Hall  '-P 6 2c'
_symmetry_space_group_name_H-M   'P 6/m c c'
_cell_angle_alpha                90
_cell_angle_beta                 90
_cell_angle_gamma                120
_cell_length_a                   9.2202
_cell_length_b                   9.2202
_cell_length_c                   9.1960
_cell_volume                     677.034
_exptl_crystal_density_diffrn    2.660
_cod_original_formula_sum
'Si6.024 Be2.937 Li.03 Al1.917 Fe.092 O18 Na.067'
_cod_database_code               9001156
loop_
_symmetry_equiv_pos_as_xyz
x,y,z
-x,-x+y,1/2+z
x,x-y,1/2-z
-x+y,-x,-z
x-y,x,z
-y,-x,1/2+z
y,x,1/2-z
y,-x+y,-z
-y,x-y,z
x-y,-y,1/2+z
-x+y,y,1/2-z
x,y,-z
-x,-y,z
x,x-y,1/2+z
-x,-x+y,1/2-z
x-y,x,-z
-x+y,-x,z
y,x,1/2+z
-y,-x,1/2-z
-y,x-y,-z
y,-x+y,z
-x+y,y,1/2+z
x-y,-y,1/2-z
-x,-y,-z
loop_
_atom_site_aniso_label
_atom_site_aniso_U_11
_atom_site_aniso_U_22
_atom_site_aniso_U_33
_atom_site_aniso_U_12
_atom_site_aniso_U_13
_atom_site_aniso_U_23
Si1 0.00310 0.00270 0.00350 0.00160 0.00000 0.00000
Al2 0.00370 0.00370 0.00490 0.00180 0.00000 0.00000
Fe 0.00370 0.00370 0.00490 0.00180 0.00000 0.00000
O1 0.01030 0.00820 0.01480 0.00720 0.00000 0.00000
O2 0.00800 0.00670 0.00640 0.00430 -0.00300 -0.00100
Na 0.03590 0.03590 0.03060 0.01795 0.00000 0.00000
loop_
_atom_site_label
_atom_site_fract_x
_atom_site_fract_y
_atom_site_fract_z
_atom_site_occupancy
_atom_site_U_iso_or_equiv
Si1 0.38750 0.11600 0.00000 1.00000 ?
Be 0.50000 0.00000 0.25000 0.97900 0.00600
Li 0.50000 0.00000 0.25000 0.01000 0.00600
Si2 0.50000 0.00000 0.25000 0.00800 0.00600
Al1 0.50000 0.00000 0.25000 0.00300 0.00600
Al2 0.66667 0.33333 0.25000 0.95400 ?
Fe 0.66667 0.33333 0.25000 0.04600 ?
O1 0.30840 0.23530 0.00000 1.00000 ?
O2 0.49820 0.14530 0.14490 1.00000 ?
Na 0.00000 0.00000 0.25000 0.06700 ?
