#------------------------------------------------------------------------------
#$Date: 2016-02-16 14:49:47 +0200 (Tue, 16 Feb 2016) $
#$Revision: 176465 $
#$URL: svn://www.crystallography.net/cod/cif/9/00/15/9001534.cif $
#------------------------------------------------------------------------------
#
# This file is available in the Crystallography Open Database (COD),
# http://www.crystallography.net/. The original data for this entry
# were provided the American Mineralogist Crystal Structure Database,
# http://rruff.geo.arizona.edu/AMS/amcsd.php
#
# The file may be used within the scientific community so long as
# proper attribution is given to the journal article from which the
# data were obtained.
#
data_9001534
loop_
_publ_author_name
'Dollase, W. A.'
'Ross, C. R.'
_publ_section_title
;
 Crystal structures of the body-centered tetragonal tectosilicates:
 K1.14Mg0.57Si1.43O4, K1.10Zn0.55Si1.45O4, and K1.11Fe1.11Si0.89O4
 Sample: Zn-rich phase
;
_journal_name_full               'American Mineralogist'
_journal_page_first              627
_journal_page_last               632
_journal_volume                  78
_journal_year                    1993
_chemical_formula_sum            'K2.2 O8 Si2.9 Zn1.1'
_chemical_name_mineral           BCTT
_space_group_IT_number           107
_symmetry_space_group_name_Hall  'I 4 -2'
_symmetry_space_group_name_H-M   'I 4 m m'
_cell_angle_alpha                90
_cell_angle_beta                 90
_cell_angle_gamma                90
_cell_length_a                   8.939
_cell_length_b                   8.939
_cell_length_c                   5.246
_cell_volume                     419.185
_exptl_crystal_density_diffrn    2.911
_cod_original_formula_sum        'K2.2 (Zn1.1 Si2.9) O8'
_cod_database_code               9001534
loop_
_symmetry_equiv_pos_as_xyz
x,y,z
1/2+x,1/2+y,1/2+z
-y,-x,z
1/2-y,1/2-x,1/2+z
-y,x,z
1/2-y,1/2+x,1/2+z
x,-y,z
1/2+x,1/2-y,1/2+z
-x,-y,z
1/2-x,1/2-y,1/2+z
y,x,z
1/2+y,1/2+x,1/2+z
y,-x,z
1/2+y,1/2-x,1/2+z
-x,y,z
1/2-x,1/2+y,1/2+z
loop_
_atom_site_aniso_label
_atom_site_aniso_U_11
_atom_site_aniso_U_22
_atom_site_aniso_U_33
_atom_site_aniso_U_12
_atom_site_aniso_U_13
_atom_site_aniso_U_23
K1 -0.02024 0.07287 0.79470 0.00000 0.00000 0.00000
K2 0.05667 0.05667 0.03764 0.00000 0.00000 0.00000
Zn 0.03238 0.03238 0.03067 -0.00405 0.01663 0.01663
Si 0.03238 0.03238 0.03067 -0.00405 0.01663 0.01663
O1 0.05667 0.05262 0.24817 0.00000 0.03564 0.00000
O2 0.07691 0.07691 0.08226 -0.02024 -0.02138 -0.02138
loop_
_atom_site_label
_atom_site_fract_x
_atom_site_fract_y
_atom_site_fract_z
_atom_site_occupancy
K1 0.00000 0.50000 0.32400 0.60000
K2 0.00000 0.00000 0.49700 1.00000
Zn 0.18180 0.18180 0.00000 0.27500
Si 0.18180 0.18180 0.00000 0.72500
O1 0.21820 0.00000 0.05400 1.00000
O2 0.28720 0.28720 0.20000 1.00000
