#------------------------------------------------------------------------------
#$Date: 2016-02-16 14:49:47 +0200 (Tue, 16 Feb 2016) $
#$Revision: 176465 $
#$URL: svn://www.crystallography.net/cod/cif/9/00/18/9001862.cif $
#------------------------------------------------------------------------------
#
# This file is available in the Crystallography Open Database (COD),
# http://www.crystallography.net/. The original data for this entry
# were provided the American Mineralogist Crystal Structure Database,
# http://rruff.geo.arizona.edu/AMS/amcsd.php
#
# The file may be used within the scientific community so long as
# proper attribution is given to the journal article from which the
# data were obtained.
#
data_9001862
loop_
_publ_author_name
'Hawthorne, F. C.'
'Della Ventura, G.'
'Robert, J.-L.'
'Welch, M. D.'
'Jenkins, D. M.'
_publ_section_title
;
 A Rietveld and infrared study of synthetic amphiboles along the
 potassium-richterite-tremolite join
 Sample: Kr20
 Note, Kr0 sample from Smelik et al (1994) Am Min 79, 1110-1122
;
_journal_name_full               'American Mineralogist'
_journal_page_first              708
_journal_page_last               716
_journal_volume                  82
_journal_year                    1997
_chemical_formula_sum            'Ca1.8 K0.4 Mg5 Na0.2 O24 Si8'
_chemical_name_mineral           Richterite
_space_group_IT_number           12
_symmetry_space_group_name_Hall  '-C 2y'
_symmetry_space_group_name_H-M   'C 1 2/m 1'
_cell_angle_alpha                90
_cell_angle_beta                 104.67
_cell_angle_gamma                90
_cell_length_a                   9.924
_cell_length_b                   18.030
_cell_length_c                   5.2749
_cell_volume                     913.068
_exptl_crystal_density_diffrn    2.992
_cod_original_formula_sum        'Si8 Mg5 (Ca1.8 Na.2) K.4 O24'
_cod_database_code               9001862
loop_
_symmetry_equiv_pos_as_xyz
x,y,z
1/2+x,1/2+y,z
x,-y,z
1/2+x,1/2-y,z
-x,y,-z
1/2-x,1/2+y,-z
-x,-y,-z
1/2-x,1/2-y,-z
loop_
_atom_site_label
_atom_site_fract_x
_atom_site_fract_y
_atom_site_fract_z
_atom_site_occupancy
Si1 0.27870 0.08490 0.30160 1.00000
Si2 0.28330 0.16970 0.80170 1.00000
Mg1 0.00000 0.08770 0.50000 1.00000
Mg2 0.00000 0.17940 0.00000 1.00000
Mg3 0.00000 0.00000 0.00000 1.00000
Ca4 0.00000 0.27680 0.50000 0.90000
Na4 0.00000 0.27680 0.50000 0.10000
KA -0.00500 0.50000 -0.00700 0.20000
O1 0.12040 0.09150 0.21880 1.00000
O2 0.10780 0.16970 0.71990 1.00000
O3 0.10550 0.00000 0.73500 1.00000
O4 0.35800 0.25000 0.78600 1.00000
O5 0.33400 0.13180 0.07560 1.00000
O6 0.34090 0.11660 0.59230 1.00000
O7 0.32950 0.00000 0.28750 1.00000
