#------------------------------------------------------------------------------
#$Date: 2016-02-16 14:49:47 +0200 (Tue, 16 Feb 2016) $
#$Revision: 176465 $
#$URL: svn://www.crystallography.net/cod/cif/9/00/16/9001699.cif $
#------------------------------------------------------------------------------
#
# This file is available in the Crystallography Open Database (COD),
# http://www.crystallography.net/. The original data for this entry
# were provided the American Mineralogist Crystal Structure Database,
# http://rruff.geo.arizona.edu/AMS/amcsd.php
#
# The file may be used within the scientific community so long as
# proper attribution is given to the journal article from which the
# data were obtained.
#
data_9001699
loop_
_publ_author_name
'Domeneghetti, M. C.'
'Molin, G. M.'
'Stimpfl, M.'
'Tribaudino, M.'
_publ_section_title
;
 Orthopyroxene from the Serra de Mage meteorite: Structure refinement and
 estimation of C2/c pyroxene contributions to apparent Pbca diffraction
 violations
 Sample: OPX SDM N.13, natural
;
_journal_name_full               'American Mineralogist'
_journal_page_first              923
_journal_page_last               929
_journal_volume                  80
_journal_year                    1995
_chemical_formula_sum            'Ca0.043 Fe0.807 Mg1.15 O6 Si2'
_chemical_name_mineral           Enstatite
_space_group_IT_number           61
_symmetry_space_group_name_Hall  '-P 2ac 2ab'
_symmetry_space_group_name_H-M   'P b c a'
_cell_angle_alpha                90
_cell_angle_beta                 90
_cell_angle_gamma                90
_cell_length_a                   18.316
_cell_length_b                   8.907
_cell_length_c                   5.218
_cell_volume                     851.268
_exptl_crystal_density_diffrn    3.541
_cod_original_formula_sum        'Si2 Mg1.15 Fe.807 Ca.043 O6'
_cod_database_code               9001699
loop_
_symmetry_equiv_pos_as_xyz
x,y,z
x,1/2-y,1/2+z
-x,1/2+y,1/2-z
1/2-x,1/2+y,z
1/2+x,1/2-y,-z
1/2+x,y,1/2-z
1/2-x,-y,1/2+z
-x,-y,-z
loop_
_atom_site_aniso_label
_atom_site_aniso_U_11
_atom_site_aniso_U_22
_atom_site_aniso_U_33
_atom_site_aniso_U_12
_atom_site_aniso_U_13
_atom_site_aniso_U_23
Sia 0.00748 0.00543 0.00406 -0.00107 -0.00005 -0.00019
Sib 0.00799 0.00619 0.00302 0.00116 0.00044 0.00002
Mg1 0.00952 0.00711 0.00363 0.00000 -0.00073 0.00035
Fe1 0.00952 0.00711 0.00363 0.00000 -0.00073 0.00035
Fe2 0.01054 0.00985 0.00357 -0.00099 -0.00232 -0.00019
Mg2 0.01054 0.00985 0.00357 -0.00099 -0.00232 -0.00019
Ca2 0.01054 0.00985 0.00357 -0.00099 -0.00232 -0.00019
O1a 0.00782 0.00961 0.00444 -0.00083 0.00160 0.00038
O1b 0.00714 0.01025 0.00502 0.00091 -0.00174 0.00073
O2a 0.01173 0.00772 0.00643 -0.00165 -0.00281 0.00009
O2b 0.01190 0.01001 0.00628 0.00264 -0.00092 0.00179
O3a 0.01020 0.01097 0.00876 0.00008 0.00174 -0.00563
O3b 0.01054 0.01125 0.00895 -0.00025 -0.00068 -0.00551
loop_
_atom_site_label
_atom_site_fract_x
_atom_site_fract_y
_atom_site_fract_z
_atom_site_occupancy
Sia 0.27149 0.34060 0.05180 1.00000
Sib 0.47403 0.33660 0.79535 1.00000
Mg1 0.37540 0.65459 0.87426 0.89600
Fe1 0.37540 0.65459 0.87426 0.10400
Fe2 0.37797 0.48308 0.36794 0.70300
Mg2 0.37797 0.48308 0.36794 0.25400
Ca2 0.37797 0.48308 0.36794 0.04300
O1a 0.18355 0.33731 0.04361 1.00000
O1b 0.56266 0.33632 0.79552 1.00000
O2a 0.31117 0.50053 0.05332 1.00000
O2b 0.43402 0.48555 0.69789 1.00000
O3a 0.30233 0.23184 -0.17642 1.00000
O3b 0.44739 0.20280 0.59356 1.00000
