#------------------------------------------------------------------------------
#$Date: 2016-02-16 14:49:47 +0200 (Tue, 16 Feb 2016) $
#$Revision: 176465 $
#$URL: svn://www.crystallography.net/cod/cif/9/00/18/9001820.cif $
#------------------------------------------------------------------------------
#
# This file is available in the Crystallography Open Database (COD),
# http://www.crystallography.net/. The original data for this entry
# were provided the American Mineralogist Crystal Structure Database,
# http://rruff.geo.arizona.edu/AMS/amcsd.php
#
# The file may be used within the scientific community so long as
# proper attribution is given to the journal article from which the
# data were obtained.
#
data_9001820
loop_
_publ_author_name
'Della Ventura, G.'
'Robert, J.-L.'
'Raudsepp, M.'
'Hawthorne, F. C.'
'Welch, M. D.'
_publ_section_title
;Site occupancies in synthetic monoclinic amphiboles: Rietveld structure
 refinement and infrared spectroscopy of (nickel, magnesium,
 cobalt)-richterite Sample: Ni20
;
_journal_name_full               'American Mineralogist'
_journal_page_first              291
_journal_page_last               301
_journal_volume                  82
_journal_year                    1997
_chemical_formula_sum            'Ca1.09 Mg4.02 Na2.73 Ni0.98 O24 Si8'
_chemical_name_mineral           Richterite
_space_group_IT_number           12
_symmetry_space_group_name_Hall  '-C 2y'
_symmetry_space_group_name_H-M   'C 1 2/m 1'
_cell_angle_alpha                90
_cell_angle_beta                 104.303
_cell_angle_gamma                90
_cell_length_a                   9.9073
_cell_length_b                   17.978
_cell_length_c                   5.2669
_cell_volume                     909.027
_exptl_crystal_density_diffrn    3.180
_cod_original_formula_sum        'Si8 (Mg4.02 Ni.98) Ca1.09 Na2.73 O24'
_cod_database_code               9001820
loop_
_symmetry_equiv_pos_as_xyz
x,y,z
1/2+x,1/2+y,z
x,-y,z
1/2+x,1/2-y,z
-x,y,-z
1/2-x,1/2+y,-z
-x,-y,-z
1/2-x,1/2-y,-z
loop_
_atom_site_label
_atom_site_fract_x
_atom_site_fract_y
_atom_site_fract_z
_atom_site_occupancy
Si1 0.27960 0.08490 0.29400 1.00000
Si2 0.28520 0.17020 0.80160 1.00000
Mg1 0.00000 0.08890 0.50000 0.77000
Ni1 0.00000 0.08890 0.50000 0.23000
Mg2 0.00000 0.17670 0.00000 0.89000
Ni2 0.00000 0.17670 0.00000 0.11000
Mg3 0.00000 0.00000 0.00000 0.70000
Ni3 0.00000 0.00000 0.00000 0.30000
Ca4 0.00000 0.27570 0.50000 0.54500
Na4 0.00000 0.27570 0.50000 0.45500
Na 0.00000 0.48350 0.00000 0.91000
O1 0.11530 0.08690 0.21710 1.00000
O2 0.11100 0.16980 0.72330 1.00000
O3 0.11080 0.00000 0.70750 1.00000
O4 0.35790 0.24800 0.77780 1.00000
O5 0.34280 0.13070 0.08710 1.00000
O6 0.33640 0.11340 0.59250 1.00000
O7 0.33370 0.00000 0.29430 1.00000
