#------------------------------------------------------------------------------
#$Date: 2016-02-16 14:49:47 +0200 (Tue, 16 Feb 2016) $
#$Revision: 176465 $
#$URL: svn://www.crystallography.net/cod/cif/9/00/12/9001213.cif $
#------------------------------------------------------------------------------
#
# This file is available in the Crystallography Open Database (COD),
# http://www.crystallography.net/. The original data for this entry
# were provided the American Mineralogist Crystal Structure Database,
# http://rruff.geo.arizona.edu/AMS/amcsd.php
#
# The file may be used within the scientific community so long as
# proper attribution is given to the journal article from which the
# data were obtained.
#
data_9001213
loop_
_publ_author_name
'Molin, G. M.'
_publ_section_title
;
 Crystal-chemical study of cation disordering in Al-rich and Al-poor
 orthopyroxenes from spinel lherzolite xenoliths
 sample Le4A, 1150 C, 10 min
;
_journal_name_full               'American Mineralogist'
_journal_page_first              593
_journal_page_last               598
_journal_volume                  74
_journal_year                    1989
_chemical_formula_sum            'Fe0.106 Mg0.893 O3 Si'
_chemical_name_mineral           Pyroxene
_space_group_IT_number           61
_symmetry_space_group_name_Hall  '-P 2ac 2ab'
_symmetry_space_group_name_H-M   'P b c a'
_cell_angle_alpha                90
_cell_angle_beta                 90
_cell_angle_gamma                90
_cell_length_a                   18.242
_cell_length_b                   8.803
_cell_length_c                   5.198
_cell_volume                     834.717
_exptl_crystal_density_diffrn    3.302
_cod_original_formula_sum        '(Mg.893 Fe.106) Si O3'
_cod_database_code               9001213
loop_
_symmetry_equiv_pos_as_xyz
x,y,z
x,1/2-y,1/2+z
-x,1/2+y,1/2-z
1/2-x,1/2+y,z
1/2+x,1/2-y,-z
1/2+x,y,1/2-z
1/2-x,-y,1/2+z
-x,-y,-z
loop_
_atom_site_aniso_label
_atom_site_aniso_U_11
_atom_site_aniso_U_22
_atom_site_aniso_U_33
_atom_site_aniso_U_12
_atom_site_aniso_U_13
_atom_site_aniso_U_23
Mg1 0.00900 0.00710 0.00980 0.00040 -0.00030 0.00010
Fe1 0.00900 0.00710 0.00980 0.00040 -0.00030 0.00010
Mg2 0.01260 0.01110 0.01120 -0.00180 -0.00190 -0.00020
Fe2 0.01260 0.01110 0.01120 -0.00180 -0.00190 -0.00020
SiA 0.00800 0.00680 0.00960 -0.00050 0.00030 -0.00010
SiB 0.00790 0.00750 0.01050 -0.00010 -0.00060 0.00050
O1 0.00770 0.01010 0.01250 0.00050 0.00040 0.00020
O2 0.01220 0.00760 0.01380 -0.00130 -0.00040 -0.00020
O3 0.01090 0.01030 0.01080 -0.00080 0.00080 -0.00250
O4 0.00900 0.00980 0.01270 -0.00010 0.00030 0.00030
O5 0.01240 0.01090 0.01240 0.00130 -0.00080 0.00250
O6 0.01090 0.01210 0.01420 -0.00010 -0.00030 -0.00480
loop_
_atom_site_label
_atom_site_fract_x
_atom_site_fract_y
_atom_site_fract_z
_atom_site_occupancy
Mg1 0.37580 0.65400 0.86510 0.94100
Fe1 0.37580 0.65400 0.86510 0.05900
Mg2 0.37840 0.48310 0.35820 0.84600
Fe2 0.37840 0.48310 0.35820 0.15400
SiA 0.27140 0.34170 0.04730 1.00000
SiB 0.47350 0.33720 0.80150 1.00000
O1 0.18300 0.33920 0.03540 1.00000
O2 0.31070 0.50310 0.04260 1.00000
O3 0.30260 0.22490 0.82560 1.00000
O4 0.56300 0.33840 0.80330 1.00000
O5 0.43310 0.48490 0.69080 1.00000
O6 0.44700 0.19520 0.60490 1.00000
