#------------------------------------------------------------------------------
#$Date: 2016-02-16 14:49:47 +0200 (Tue, 16 Feb 2016) $
#$Revision: 176465 $
#$URL: svn://www.crystallography.net/cod/cif/9/00/13/9001338.cif $
#------------------------------------------------------------------------------
#
# This file is available in the Crystallography Open Database (COD),
# http://www.crystallography.net/. The original data for this entry
# were provided the American Mineralogist Crystal Structure Database,
# http://rruff.geo.arizona.edu/AMS/amcsd.php
#
# The file may be used within the scientific community so long as
# proper attribution is given to the journal article from which the
# data were obtained.
#
data_9001338
loop_
_publ_author_name
'Oberti, R.'
'Caporuscio, F. A.'
_publ_section_title
;Crystal chemistry of clinopyroxenes from mantle eclogites: A study of the key
 role of the M2 site population by means of crystal-structure refinement
 sample SBB 25, Di55Jd30, diopside - jadeite join
;
_journal_name_full               'American Mineralogist'
_journal_page_first              1141
_journal_page_last               1152
_journal_volume                  76
_journal_year                    1991
_chemical_formula_sum
'Al0.32 Ca0.55 Fe0.15 Mg0.65 Na0.3 O6 Si2 Ti0.01'
_chemical_name_mineral           Diopside
_space_group_IT_number           15
_symmetry_space_group_name_Hall  '-C 2yc'
_symmetry_space_group_name_H-M   'C 1 2/c 1'
_cell_angle_alpha                90
_cell_angle_beta                 106.88
_cell_angle_gamma                90
_cell_length_a                   9.628
_cell_length_b                   8.808
_cell_length_c                   5.254
_cell_volume                     426.360
_exptl_crystal_density_diffrn    3.340
_cod_original_formula_sum        'Mg.65 Fe.15 Ti.01 Al.32 Ca.55 Na.3 Si2 O6'
_cod_database_code               9001338
loop_
_symmetry_equiv_pos_as_xyz
x,y,z
1/2+x,1/2+y,z
x,-y,1/2+z
1/2+x,1/2-y,1/2+z
-x,y,1/2-z
1/2-x,1/2+y,1/2-z
-x,-y,-z
1/2-x,1/2-y,-z
loop_
_atom_site_label
_atom_site_fract_x
_atom_site_fract_y
_atom_site_fract_z
_atom_site_occupancy
_atom_site_U_iso_or_equiv
Mg1 0.00000 0.90550 0.25000 0.59000 0.00671
Fe1 0.00000 0.90550 0.25000 0.08000 0.00671
Ti1 0.00000 0.90550 0.25000 0.01000 0.00671
Al1 0.00000 0.90550 0.25000 0.32000 0.00671
Ca2 0.00000 0.29820 0.25000 0.55000 0.01153
Na2 0.00000 0.29820 0.25000 0.30000 0.01153
Fe2 0.00000 0.29820 0.25000 0.07000 0.00190
Mg2 0.00000 0.29820 0.25000 0.06000 0.00190
Si 0.28860 0.09250 0.23220 1.00000 0.00583
O1 0.11410 0.08320 0.13790 1.00000 0.01064
O2 0.36170 0.25390 0.31470 1.00000 0.01254
O3 0.35200 0.01490 0.00230 1.00000 0.00925
