#------------------------------------------------------------------------------
#$Date: 2017-10-06 19:24:22 +0300 (Fri, 06 Oct 2017) $
#$Revision: 201816 $
#$URL: file:///home/coder/svn-repositories/cod/cif/9/00/10/9001030.cif $
#------------------------------------------------------------------------------
#
# This file is available in the Crystallography Open Database (COD),
# http://www.crystallography.net/. The original data for this entry
# were provided the American Mineralogist Crystal Structure Database,
# http://rruff.geo.arizona.edu/AMS/amcsd.php
#
# The file may be used within the scientific community so long as
# proper attribution is given to the journal article from which the
# data were obtained.
#
data_9001030
loop_
_publ_author_name
'FitzGerald, J. D.'
'Parise, J. B.'
'Mackinnon, I. D. R.'
_publ_section_title
;
 Average structure of an An48 plagioclase from the Hogarth Ranges
 Sample: Neutron data
;
_journal_name_full               'American Mineralogist'
_journal_page_first              1399
_journal_page_last               1408
_journal_volume                  71
_journal_year                    1986
_chemical_formula_sum            'Al0.735 Ca0.24 Na0.26 O4 Si1.265'
_chemical_name_mineral           Andesine
_space_group_IT_number           2
_symmetry_space_group_name_Hall  '-P 1 (1/2*x+1/2*y,1/2*x-1/2*y,-z)'
_symmetry_space_group_name_H-M   'C -1'
_cell_angle_alpha                93.44
_cell_angle_beta                 116.21
_cell_angle_gamma                90.23
_cell_length_a                   8.179
_cell_length_b                   12.880
_cell_length_c                   7.112
_cell_volume                     670.583
_database_code_amcsd             0001052
_exptl_crystal_density_diffrn    2.673
_cod_original_formula_sum        'Ca.24 Na.26 (Al.735 Si1.265) O4'
_cod_database_code               9001030
loop_
_symmetry_equiv_pos_as_xyz
x,y,z
1/2+x,1/2+y,z
-x,-y,-z
1/2-x,1/2-y,-z
loop_
_atom_site_aniso_label
_atom_site_aniso_U_11
_atom_site_aniso_U_22
_atom_site_aniso_U_33
_atom_site_aniso_U_12
_atom_site_aniso_U_13
_atom_site_aniso_U_23
CaM' 0.01853 0.06608 0.02804 -0.01036 0.01204 -0.01674
NaM' 0.01853 0.06608 0.02804 -0.01036 0.01204 -0.01674
CaM" 0.01490 0.04416 0.03034 0.00840 0.00378 -0.01417
NaM" 0.01490 0.04416 0.03034 0.00840 0.00378 -0.01417
AlT1o 0.01259 0.01531 0.00983 -0.00167 0.00497 0.00120
SiT1o 0.01259 0.01531 0.01004 -0.00167 0.00497 0.00120
AlT1m 0.01292 0.01606 0.00971 0.00449 0.00506 0.00120
SiT1m 0.01292 0.01606 0.00971 0.00449 0.00506 0.00120
AlT2o 0.01136 0.01263 0.01246 0.00158 0.00461 0.00104
SiT2o 0.01136 0.01263 0.01246 0.00158 0.00461 0.00104
AlT2m 0.01098 0.01305 0.01170 0.00134 0.00471 0.00182
SiT2m 0.01098 0.01305 0.01170 0.00134 0.00471 0.00182
OA1 0.03109 0.02944 0.01540 0.00411 0.01376 0.00427
OA2 0.01537 0.01531 0.01909 0.00048 0.00639 0.00311
OBo 0.02262 0.02242 0.02802 -0.00215 0.01528 -0.00029
OBm 0.02259 0.03020 0.03826 0.00387 0.01838 -0.00278
OCo 0.02082 0.02275 0.02330 -0.00272 0.00972 0.00166
OCm 0.02063 0.02409 0.01889 0.00792 0.00459 -0.00037
ODo 0.02076 0.02375 0.01538 0.00172 0.00300 0.00286
ODm 0.02098 0.02685 0.01991 0.00172 0.00009 -0.00286
loop_
_atom_site_label
_atom_site_fract_x
_atom_site_fract_y
_atom_site_fract_z
_atom_site_occupancy
CaM* 0.26809 -0.01884 0.16802 0.15000
NaM* 0.26809 -0.01884 0.16802 0.29000
CaM* 0.27180 0.02701 0.10219 0.33000
NaM* 0.27180 0.02701 0.10219 0.23000
AlT1o 0.00694 0.16420 0.21481 0.51000
SiT1o 0.00694 0.16420 0.21481 0.49000
AlT1m 0.00346 0.81651 0.23115 0.32000
SiT1m 0.00346 0.81651 0.23115 0.68000
AlT2o 0.68601 0.10893 0.31813 0.32000
SiT2o 0.68601 0.10893 0.31813 0.68000
AlT2m 0.68193 0.87892 0.35638 0.32000
SiT2m 0.68193 0.87892 0.35638 0.68000
OA1 0.00387 0.13025 0.98101 1.00000
OA2 0.58279 0.99186 0.27868 1.00000
OBo 0.81405 0.10547 0.19149 1.00000
OBm 0.81627 0.85251 0.24428 1.00000
OCo 0.01490 0.29097 0.27964 1.00000
OCm 0.01466 0.68761 0.21573 1.00000
ODo 0.19785 0.10857 0.38416 1.00000
ODm 0.18964 0.86653 0.42901 1.00000
loop_
_cod_related_entry_id
_cod_related_entry_database
_cod_related_entry_code
1 AMCSD 0001052
