#------------------------------------------------------------------------------
#$Date: 2016-02-16 14:49:47 +0200 (Tue, 16 Feb 2016) $
#$Revision: 176465 $
#$URL: svn://www.crystallography.net/cod/cif/9/00/19/9001965.cif $
#------------------------------------------------------------------------------
#
# This file is available in the Crystallography Open Database (COD),
# http://www.crystallography.net/. The original data for this entry
# were provided the American Mineralogist Crystal Structure Database,
# http://rruff.geo.arizona.edu/AMS/amcsd.php
#
# The file may be used within the scientific community so long as
# proper attribution is given to the journal article from which the
# data were obtained.
#
data_9001965
loop_
_publ_author_name
'Baron, V.'
'Gutzmer, J.'
'Rundlof, H.'
'Tellgren, R.'
_publ_section_title
;The influence of iron substitution on the magnetic properties of hausmannite,
 Mn(Fe,Mn)2O4 Sample at T = 295 K, synthetic
;
_journal_name_full               'American Mineralogist'
_journal_page_first              786
_journal_page_last               793
_journal_volume                  83
_journal_year                    1998
_chemical_formula_sum            'Fe0.297 Mn2.703 O4'
_chemical_name_mineral           Hausmannite
_space_group_IT_number           141
_symmetry_space_group_name_Hall  '-I 4bd 2'
_symmetry_space_group_name_H-M   'I 41/a m d :2'
_cell_angle_alpha                90
_cell_angle_beta                 90
_cell_angle_gamma                90
_cell_length_a                   5.7843
_cell_length_b                   5.7843
_cell_length_c                   9.297
_cell_volume                     311.060
_diffrn_ambient_temperature      295
_exptl_crystal_density_diffrn    4.892
_cod_original_sg_symbol_H-M      'I 41/a m d'
_cod_original_formula_sum        '(Mn2.703 Fe.297) O4'
_cod_database_code               9001965
loop_
_symmetry_equiv_pos_as_xyz
x,y,z
1/2+x,1/2+y,1/2+z
1/4-y,3/4-x,1/4+z
3/4-y,1/4-x,3/4+z
1/4+y,3/4+x,1/4-z
3/4+y,1/4+x,3/4-z
1/4+y,3/4-x,1/4-z
3/4+y,1/4-x,3/4-z
1/4-y,3/4+x,1/4+z
3/4-y,1/4+x,3/4+z
1/2+x,-y,1/2+z
+x,1/2-y,+z
1/2-x,y,1/2-z
-x,1/2+y,-z
1/2+x,y,1/2-z
+x,1/2+y,-z
1/2-x,-y,1/2+z
-x,1/2-y,+z
1/4+y,1/4+x,3/4+z
3/4+y,3/4+x,1/4+z
1/4-y,1/4-x,3/4-z
3/4-y,3/4-x,1/4-z
1/4-y,1/4+x,3/4-z
3/4-y,3/4+x,1/4-z
1/4+y,1/4-x,3/4+z
3/4+y,3/4-x,1/4+z
-x,y,z
1/2-x,1/2+y,1/2+z
x,-y,-z
1/2+x,1/2-y,1/2-z
-x,-y,-z
1/2-x,1/2-y,1/2-z
loop_
_atom_site_label
_atom_site_fract_x
_atom_site_fract_y
_atom_site_fract_z
_atom_site_occupancy
Mn2+ 0.00000 0.75000 0.12500 0.94300
Fe2+ 0.00000 0.75000 0.12500 0.05700
Mn3+ 0.00000 0.00000 0.50000 0.88000
Fe3+ 0.00000 0.00000 0.50000 0.12000
O 0.00000 0.47320 0.25970 1.00000
