#------------------------------------------------------------------------------
#$Date: 2017-01-24 14:42:25 +0200 (Tue, 24 Jan 2017) $
#$Revision: 190882 $
#$URL: file:///home/coder/svn-repositories/cod/cif/9/00/11/9001129.cif $
#------------------------------------------------------------------------------
#
# This file is available in the Crystallography Open Database (COD),
# http://www.crystallography.net/. The original data for this entry
# were provided the American Mineralogist Crystal Structure Database,
# http://rruff.geo.arizona.edu/AMS/amcsd.php
#
# The file may be used within the scientific community so long as
# proper attribution is given to the journal article from which the
# data were obtained.
#
data_9001129
loop_
_publ_author_name
'Armbruster, T.'
'Oberhansli, R.'
_publ_section_title
;Crystal chemistry of double-ring silicates: Structural, chemical, and optical
 variation in osumilites Sample: Eifel-Nickenich
;
_journal_name_full               'American Mineralogist'
_journal_page_first              585
_journal_page_last               594
_journal_volume                  73
_journal_year                    1988
_chemical_formula_sum            'Al4.56 Fe0.26 K0.69 Mg1.98 O30 Si10.2'
_chemical_name_mineral           Osumilite
_space_group_IT_number           192
_symmetry_space_group_name_Hall  '-P 6 2c'
_symmetry_space_group_name_H-M   'P 6/m c c'
_cell_angle_alpha                90
_cell_angle_beta                 90
_cell_angle_gamma                120
_cell_length_a                   10.078
_cell_length_b                   10.078
_cell_length_c                   14.319
_cell_volume                     1259.482
_exptl_crystal_density_diffrn    2.582
_cod_original_formula_sum        'K.69 Fe.26 Mg1.98 Si10.2 Al4.56 O30'
_cod_database_code               9001129
_cod_depositor_comments
;
 Adding the _atom_site_type_symbol data item.

 Antanas Vaitkus,
 2017-01-24
;
loop_
_symmetry_equiv_pos_as_xyz
x,y,z
-x,-x+y,1/2+z
x,x-y,1/2-z
-x+y,-x,-z
x-y,x,z
-y,-x,1/2+z
y,x,1/2-z
y,-x+y,-z
-y,x-y,z
x-y,-y,1/2+z
-x+y,y,1/2-z
x,y,-z
-x,-y,z
x,x-y,1/2+z
-x,-x+y,1/2-z
x-y,x,-z
-x+y,-x,z
y,x,1/2+z
-y,-x,1/2-z
-y,x-y,-z
y,-x+y,z
-x+y,y,1/2+z
x-y,-y,1/2-z
-x,-y,-z
loop_
_atom_site_aniso_label
_atom_site_aniso_U_11
_atom_site_aniso_U_22
_atom_site_aniso_U_33
_atom_site_aniso_U_12
_atom_site_aniso_U_13
_atom_site_aniso_U_23
KC 0.03000 0.03000 0.03300 0.01500 0.00000 0.00000
FeA 0.00530 0.00530 0.00980 0.00265 0.00000 0.00000
MgA 0.00530 0.00530 0.00980 0.00265 0.00000 0.00000
Si1 0.00940 0.01070 0.00800 0.00600 0.00160 0.00170
Al1 0.00940 0.01070 0.00800 0.00600 0.00160 0.00170
Fe2 0.01630 0.01630 0.00910 0.01370 0.00000 0.00000
Al2 0.01630 0.01630 0.00910 0.01370 0.00000 0.00000
O1 0.02700 0.02200 0.00790 0.01200 0.00000 0.00000
O2 0.02700 0.03300 0.02450 0.02380 -0.00010 -0.00250
O3 0.01530 0.01690 0.01200 0.01020 -0.00360 -0.00480
loop_
_atom_site_label
_atom_site_type_symbol
_atom_site_fract_x
_atom_site_fract_y
_atom_site_fract_z
_atom_site_occupancy
KC K 0.00000 0.00000 0.25000 0.69000
FeA Fe 0.33333 0.66667 0.25000 0.01000
MgA Mg 0.33333 0.66667 0.25000 0.99000
Si1 Si 0.24734 0.35333 0.39204 0.85000
Al1 Al 0.24734 0.35333 0.39204 0.15000
Fe2 Fe 0.50000 0.50000 0.25000 0.08000
Al2 Al 0.50000 0.50000 0.25000 0.92000
O1 O 0.12370 0.40710 0.00000 1.00000
O2 O 0.21760 0.28510 0.13180 1.00000
O3 O 0.14100 0.49370 0.17870 1.00000
