#------------------------------------------------------------------------------
#$Date: 2016-02-16 14:49:47 +0200 (Tue, 16 Feb 2016) $
#$Revision: 176465 $
#$URL: svn://www.crystallography.net/cod/cif/9/00/10/9001066.cif $
#------------------------------------------------------------------------------
#
# This file is available in the Crystallography Open Database (COD),
# http://www.crystallography.net/. The original data for this entry
# were provided the American Mineralogist Crystal Structure Database,
# http://rruff.geo.arizona.edu/AMS/amcsd.php
#
# The file may be used within the scientific community so long as
# proper attribution is given to the journal article from which the
# data were obtained.
#
data_9001066
loop_
_publ_author_name
'Miyake, M.'
'Nakamura, H.'
'Kojima, H.'
'Marumo, F.'
_publ_section_title
;
 Cation ordering in Co-Mg olivine solid-solution series
 Sample: Co10
;
_journal_name_full               'American Mineralogist'
_journal_page_first              594
_journal_page_last               598
_journal_volume                  72
_journal_year                    1987
_chemical_formula_sum            'Co0.953 Mg1.047 O4 Si'
_chemical_name_mineral           Olivine
_space_group_IT_number           62
_symmetry_space_group_name_Hall  '-P 2c 2ab'
_symmetry_space_group_name_H-M   'P b n m'
_cell_angle_alpha                90
_cell_angle_beta                 90
_cell_angle_gamma                90
_cell_length_a                   4.771
_cell_length_b                   10.245
_cell_length_c                   5.988
_cell_volume                     292.687
_exptl_crystal_density_diffrn    3.942
_cod_original_formula_sum        '(Co.953 Mg1.047) Si O4'
_cod_database_code               9001066
loop_
_symmetry_equiv_pos_as_xyz
x,y,z
x,y,1/2-z
-x,-y,1/2+z
1/2+x,1/2-y,1/2+z
1/2-x,1/2+y,1/2-z
1/2-x,1/2+y,z
1/2+x,1/2-y,-z
-x,-y,-z
loop_
_atom_site_aniso_label
_atom_site_aniso_U_11
_atom_site_aniso_U_22
_atom_site_aniso_U_33
_atom_site_aniso_U_12
_atom_site_aniso_U_13
_atom_site_aniso_U_23
Co1 0.00430 0.00620 0.00460 -0.00020 -0.00050 -0.00100
Mg1 0.00430 0.00620 0.00460 -0.00020 -0.00050 -0.00100
Co2 0.00510 0.00430 0.00520 0.00020 0.00000 0.00000
Mg2 0.00510 0.00430 0.00520 0.00020 0.00000 0.00000
Si 0.00320 0.00440 0.00470 0.00010 0.00000 0.00000
O1 0.00420 0.00740 0.00600 0.00060 0.00000 0.00000
O2 0.00580 0.00400 0.00660 -0.00010 0.00000 0.00000
O3 0.00580 0.00730 0.00540 0.00040 -0.00040 0.00140
loop_
_atom_site_label
_atom_site_fract_x
_atom_site_fract_y
_atom_site_fract_z
_atom_site_occupancy
Co1 0.00000 0.00000 0.00000 0.67500
Mg1 0.00000 0.00000 0.00000 0.32500
Co2 0.99090 0.27670 0.25000 0.27800
Mg2 0.99090 0.27670 0.25000 0.72200
Si 0.42740 0.09480 0.25000 1.00000
O1 0.76740 0.09300 0.25000 1.00000
O2 0.21600 0.44770 0.25000 1.00000
O3 0.28000 0.16400 0.03370 1.00000
