#------------------------------------------------------------------------------
#$Date: 2016-02-16 14:49:47 +0200 (Tue, 16 Feb 2016) $
#$Revision: 176465 $
#$URL: svn://www.crystallography.net/cod/cif/9/00/13/9001356.cif $
#------------------------------------------------------------------------------
#
# This file is available in the Crystallography Open Database (COD),
# http://www.crystallography.net/. The original data for this entry
# were provided the American Mineralogist Crystal Structure Database,
# http://rruff.geo.arizona.edu/AMS/amcsd.php
#
# The file may be used within the scientific community so long as
# proper attribution is given to the journal article from which the
# data were obtained.
#
data_9001356
loop_
_publ_author_name
'Bigi, S.'
'Brigatti, M. F.'
'Capedri, S.'
_publ_section_title
;
 Crystal chemistry of Fe- and Cr-rich warwickite
 sample S3
;
_journal_name_full               'American Mineralogist'
_journal_page_first              1380
_journal_page_last               1388
_journal_volume                  76
_journal_year                    1991
_chemical_formula_sum            'Al0.04 B Cr0.18 Fe0.51 Mg1.15 O4 Ti0.12'
_chemical_name_mineral           Warwickite
_space_group_IT_number           62
_symmetry_space_group_name_Hall  '-P 2ac 2n'
_symmetry_space_group_name_H-M   'P n m a'
_cell_angle_alpha                90
_cell_angle_beta                 90
_cell_angle_gamma                90
_cell_length_a                   9.230
_cell_length_b                   3.0906
_cell_length_c                   9.378
_cell_volume                     267.519
_exptl_crystal_density_diffrn    3.660
_cod_original_formula_sum        'B Al.04 Cr.18 Fe.51 Ti.12 Mg1.15 O4'
_cod_database_code               9001356
loop_
_symmetry_equiv_pos_as_xyz
x,y,z
x,1/2-y,z
-x,1/2+y,-z
1/2-x,1/2+y,1/2+z
1/2+x,1/2-y,1/2-z
1/2+x,y,1/2-z
1/2-x,-y,1/2+z
-x,-y,-z
loop_
_atom_site_aniso_label
_atom_site_aniso_U_11
_atom_site_aniso_U_22
_atom_site_aniso_U_33
_atom_site_aniso_U_12
_atom_site_aniso_U_13
_atom_site_aniso_U_23
B 0.02417 0.01142 0.01381 0.00000 0.00132 0.00000
Al1 0.02115 0.00837 0.01649 0.00000 -0.00307 0.00000
Cr1 0.02115 0.00837 0.01649 0.00000 -0.00307 0.00000
Fe1 0.02115 0.00837 0.01649 0.00000 -0.00307 0.00000
Ti1 0.02115 0.00837 0.01649 0.00000 -0.00307 0.00000
Mg1 0.02115 0.00837 0.01649 0.00000 -0.00307 0.00000
Mg2 0.01813 0.00760 0.01738 0.00000 0.00000 0.00000
O1 0.01985 0.01573 0.01827 0.00000 -0.00307 0.00000
O2 0.02072 0.01645 0.01470 0.00000 0.00307 0.00000
O3 0.02072 0.01408 0.01426 0.00000 -0.00482 0.00000
O4 0.02287 0.01176 0.01649 0.00000 0.00175 0.00000
loop_
_atom_site_label
_atom_site_fract_x
_atom_site_fract_y
_atom_site_fract_z
_atom_site_occupancy
B 0.13740 0.25000 0.87500 1.00000
Al1 0.11567 0.25000 0.56875 0.04000
Cr1 0.11567 0.25000 0.56875 0.18000
Fe1 0.11567 0.25000 0.56875 0.51000
Ti1 0.11567 0.25000 0.56875 0.12000
Mg1 0.11567 0.25000 0.56875 0.15000
Mg2 0.10266 0.25000 0.19032 1.00000
O1 0.02080 0.25000 0.86740 1.00000
O2 0.24650 0.25000 0.74710 1.00000
O3 0.23760 0.25000 0.00540 1.00000
O4 0.01010 0.25000 0.38350 1.00000
