#------------------------------------------------------------------------------
#$Date: 2016-02-16 14:49:47 +0200 (Tue, 16 Feb 2016) $
#$Revision: 176465 $
#$URL: svn://www.crystallography.net/cod/cif/9/00/12/9001210.cif $
#------------------------------------------------------------------------------
#
# This file is available in the Crystallography Open Database (COD),
# http://www.crystallography.net/. The original data for this entry
# were provided the American Mineralogist Crystal Structure Database,
# http://rruff.geo.arizona.edu/AMS/amcsd.php
#
# The file may be used within the scientific community so long as
# proper attribution is given to the journal article from which the
# data were obtained.
#
data_9001210
loop_
_publ_author_name
'Molin, G. M.'
_publ_section_title
;
 Crystal-chemical study of cation disordering in Al-rich and Al-poor
 orthopyroxenes from spinel lherzolite xenoliths
 sample Le4A, 1050 C, 10 min
;
_journal_name_full               'American Mineralogist'
_journal_page_first              593
_journal_page_last               598
_journal_volume                  74
_journal_year                    1989
_chemical_formula_sum            'Fe0.108 Mg0.893 O3 Si'
_chemical_name_mineral           Pyroxene
_space_group_IT_number           61
_symmetry_space_group_name_Hall  '-P 2ac 2ab'
_symmetry_space_group_name_H-M   'P b c a'
_cell_angle_alpha                90
_cell_angle_beta                 90
_cell_angle_gamma                90
_cell_length_a                   18.243
_cell_length_b                   8.808
_cell_length_c                   5.197
_cell_volume                     835.077
_exptl_crystal_density_diffrn    3.302
_cod_original_cell_volume        835.076
_cod_original_formula_sum        '(Mg.893 Fe.108) Si O3'
_cod_database_code               9001210
loop_
_symmetry_equiv_pos_as_xyz
x,y,z
x,1/2-y,1/2+z
-x,1/2+y,1/2-z
1/2-x,1/2+y,z
1/2+x,1/2-y,-z
1/2+x,y,1/2-z
1/2-x,-y,1/2+z
-x,-y,-z
loop_
_atom_site_aniso_label
_atom_site_aniso_U_11
_atom_site_aniso_U_22
_atom_site_aniso_U_33
_atom_site_aniso_U_12
_atom_site_aniso_U_13
_atom_site_aniso_U_23
Mg1 0.00780 0.00930 0.00760 0.00010 -0.00070 0.00000
Fe1 0.00780 0.00930 0.00760 0.00010 -0.00070 0.00000
Mg2 0.01090 0.01400 0.00930 -0.00210 -0.00180 -0.00040
Fe2 0.01090 0.01400 0.00930 -0.00210 -0.00180 -0.00040
SiA 0.00640 0.00930 0.00760 -0.00050 0.00030 -0.00040
SiB 0.00680 0.00940 0.00850 0.00010 -0.00030 0.00020
O1 0.00670 0.01140 0.01080 0.00080 0.00040 0.00030
O2 0.01060 0.01070 0.01080 -0.00090 -0.00090 0.00030
O3 0.00930 0.01500 0.00860 -0.00030 0.00070 -0.00200
O4 0.00790 0.01130 0.01070 -0.00020 0.00050 0.00030
O5 0.01050 0.01300 0.01200 0.00050 -0.00050 0.00220
O6 0.00830 0.01480 0.01300 -0.00030 -0.00050 -0.00470
loop_
_atom_site_label
_atom_site_fract_x
_atom_site_fract_y
_atom_site_fract_z
_atom_site_occupancy
Mg1 0.37580 0.65400 0.86500 0.94300
Fe1 0.37580 0.65400 0.86500 0.05700
Mg2 0.37840 0.48320 0.35820 0.84200
Fe2 0.37840 0.48320 0.35820 0.15800
SiA 0.27140 0.34170 0.04730 1.00000
SiB 0.47350 0.33720 0.80160 1.00000
O1 0.18300 0.33920 0.03480 1.00000
O2 0.31060 0.50330 0.04190 1.00000
O3 0.30260 0.22490 0.82580 1.00000
O4 0.56300 0.33840 0.80380 1.00000
O5 0.43340 0.48510 0.69140 1.00000
O6 0.44700 0.19520 0.60630 1.00000
