#------------------------------------------------------------------------------
#$Date: 2016-02-16 14:49:47 +0200 (Tue, 16 Feb 2016) $
#$Revision: 176465 $
#$URL: svn://www.crystallography.net/cod/cif/9/00/12/9001219.cif $
#------------------------------------------------------------------------------
#
# This file is available in the Crystallography Open Database (COD),
# http://www.crystallography.net/. The original data for this entry
# were provided the American Mineralogist Crystal Structure Database,
# http://rruff.geo.arizona.edu/AMS/amcsd.php
#
# The file may be used within the scientific community so long as
# proper attribution is given to the journal article from which the
# data were obtained.
#
data_9001219
loop_
_publ_author_name
'Molin, G. M.'
_publ_section_title
;
 Crystal-chemical study of cation disordering in Al-rich and Al-poor
 orthopyroxenes from spinel lherzolite xenoliths
 sample Le9A, 1150 C, 10 min
;
_journal_name_full               'American Mineralogist'
_journal_page_first              593
_journal_page_last               598
_journal_volume                  74
_journal_year                    1989
_chemical_formula_sum            'Fe0.086 Mg0.914 O3 Si'
_chemical_name_mineral           Pyroxene
_space_group_IT_number           61
_symmetry_space_group_name_Hall  '-P 2ac 2ab'
_symmetry_space_group_name_H-M   'P b c a'
_cell_angle_alpha                90
_cell_angle_beta                 90
_cell_angle_gamma                90
_cell_length_a                   18.243
_cell_length_b                   8.834
_cell_length_c                   5.190
_cell_volume                     836.413
_exptl_crystal_density_diffrn    3.275
_cod_original_formula_sum        '(Mg.914 Fe.086) Si O3'
_cod_database_code               9001219
loop_
_symmetry_equiv_pos_as_xyz
x,y,z
x,1/2-y,1/2+z
-x,1/2+y,1/2-z
1/2-x,1/2+y,z
1/2+x,1/2-y,-z
1/2+x,y,1/2-z
1/2-x,-y,1/2+z
-x,-y,-z
loop_
_atom_site_aniso_label
_atom_site_aniso_U_11
_atom_site_aniso_U_22
_atom_site_aniso_U_33
_atom_site_aniso_U_12
_atom_site_aniso_U_13
_atom_site_aniso_U_23
Mg1 0.00800 0.00830 0.00700 0.00000 -0.00070 0.00030
Fe1 0.00800 0.00830 0.00700 0.00000 -0.00070 0.00030
Mg2 0.01100 0.01120 0.00850 -0.00160 -0.00200 0.00020
Fe2 0.01100 0.01120 0.00850 -0.00160 -0.00200 0.00020
SiA 0.00630 0.00810 0.00670 -0.00060 0.00030 -0.00020
SiB 0.00620 0.00800 0.00700 -0.00010 -0.00030 0.00000
O1 0.00610 0.00980 0.00870 0.00030 0.00110 -0.00050
O2 0.00950 0.00880 0.00940 -0.00140 -0.00130 0.00080
O3 0.00850 0.01170 0.00690 -0.00040 0.00010 -0.00200
O4 0.00640 0.00990 0.00840 -0.00040 0.00000 0.00080
O5 0.00890 0.01060 0.00890 0.00150 0.00010 0.00110
O6 0.00780 0.01100 0.00910 -0.00030 -0.00010 -0.00240
loop_
_atom_site_label
_atom_site_fract_x
_atom_site_fract_y
_atom_site_fract_z
_atom_site_occupancy
Mg1 0.37580 0.65400 0.86660 0.96000
Fe1 0.37580 0.65400 0.86660 0.04000
Mg2 0.37750 0.48500 0.36000 0.86900
Fe2 0.37750 0.48500 0.36000 0.13100
SiA 0.27160 0.34150 0.04970 1.00000
SiB 0.47360 0.33720 0.79860 1.00000
O1 0.18330 0.33950 0.03580 1.00000
O2 0.31090 0.50220 0.04440 1.00000
O3 0.30290 0.22440 0.82890 1.00000
O4 0.56240 0.33950 0.80060 1.00000
O5 0.43310 0.48350 0.69050 1.00000
O6 0.44750 0.19620 0.60290 1.00000
