#------------------------------------------------------------------------------
#$Date: 2016-02-16 14:49:47 +0200 (Tue, 16 Feb 2016) $
#$Revision: 176465 $
#$URL: svn://www.crystallography.net/cod/cif/9/00/11/9001152.cif $
#------------------------------------------------------------------------------
#
# This file is available in the Crystallography Open Database (COD),
# http://www.crystallography.net/. The original data for this entry
# were provided the American Mineralogist Crystal Structure Database,
# http://rruff.geo.arizona.edu/AMS/amcsd.php
#
# The file may be used within the scientific community so long as
# proper attribution is given to the journal article from which the
# data were obtained.
#
data_9001152
loop_
_publ_author_name
'Aurisicchio, C.'
'Fioravanti, G.'
'Grubessi, O.'
'Zanazzi, P. F.'
_publ_section_title
;
 Reappraisal of the crystal chemistry of beryl
 Sample: 6
;
_journal_name_full               'American Mineralogist'
_journal_page_first              826
_journal_page_last               837
_journal_volume                  73
_journal_year                    1988
_chemical_formula_sum
'Al1.652 Be2.877 Cs0.04 Fe0.234 Li0.099 Mg0.116 Na0.315 O18 Si6.024'
_chemical_name_mineral           Beryl
_space_group_IT_number           192
_symmetry_space_group_name_Hall  '-P 6 2c'
_symmetry_space_group_name_H-M   'P 6/m c c'
_cell_angle_alpha                90
_cell_angle_beta                 90
_cell_angle_gamma                120
_cell_length_a                   9.2531
_cell_length_b                   9.2531
_cell_length_c                   9.1918
_cell_volume                     681.563
_exptl_crystal_density_diffrn    2.713
_cod_original_formula_sum
'Si6.024 Be2.877 Li.099 Al1.652 Fe.234 Mg.116 O18 Na.315 Cs.04'
_cod_database_code               9001152
loop_
_symmetry_equiv_pos_as_xyz
x,y,z
-x,-x+y,1/2+z
x,x-y,1/2-z
-x+y,-x,-z
x-y,x,z
-y,-x,1/2+z
y,x,1/2-z
y,-x+y,-z
-y,x-y,z
x-y,-y,1/2+z
-x+y,y,1/2-z
x,y,-z
-x,-y,z
x,x-y,1/2+z
-x,-x+y,1/2-z
x-y,x,-z
-x+y,-x,z
y,x,1/2+z
-y,-x,1/2-z
-y,x-y,-z
y,-x+y,z
-x+y,y,1/2+z
x-y,-y,1/2-z
-x,-y,-z
loop_
_atom_site_aniso_label
_atom_site_aniso_U_11
_atom_site_aniso_U_22
_atom_site_aniso_U_33
_atom_site_aniso_U_12
_atom_site_aniso_U_13
_atom_site_aniso_U_23
Si1 0.00510 0.00460 0.00360 0.00260 0.00000 0.00000
Al 0.00640 0.00640 0.00630 0.00320 0.00000 0.00000
Fe1 0.00640 0.00640 0.00630 0.00320 0.00000 0.00000
Fe2 0.00640 0.00640 0.00630 0.00320 0.00000 0.00000
Mg 0.00640 0.00640 0.00630 0.00320 0.00000 0.00000
O1 0.01430 0.01200 0.01720 0.01030 0.00000 0.00000
O2 0.01230 0.01150 0.00670 0.00730 -0.00260 -0.00090
Na 0.03210 0.03210 0.02390 0.01610 0.00000 0.00000
Cs 0.03210 0.03210 0.02390 0.01610 0.00000 0.00000
loop_
_atom_site_label
_atom_site_fract_x
_atom_site_fract_y
_atom_site_fract_z
_atom_site_occupancy
_atom_site_U_iso_or_equiv
Si1 0.38630 0.11390 0.00000 1.00000 ?
Be 0.50000 0.00000 0.25000 0.95900 0.00800
Li 0.50000 0.00000 0.25000 0.03300 0.00800
Si2 0.50000 0.00000 0.25000 0.00800 0.00800
Al 0.66667 0.33333 0.25000 0.82600 ?
Fe1 0.66667 0.33333 0.25000 0.02000 ?
Fe2 0.66667 0.33333 0.25000 0.09700 ?
Mg 0.66667 0.33333 0.25000 0.05800 ?
O1 0.30640 0.23260 0.00000 1.00000 ?
O2 0.49600 0.14340 0.14510 1.00000 ?
Na 0.00000 0.00000 0.25000 0.31500 ?
Cs 0.00000 0.00000 0.25000 0.04000 ?
