#------------------------------------------------------------------------------
#$Date: 2016-02-16 14:49:47 +0200 (Tue, 16 Feb 2016) $
#$Revision: 176465 $
#$URL: svn://www.crystallography.net/cod/cif/9/00/18/9001828.cif $
#------------------------------------------------------------------------------
#
# This file is available in the Crystallography Open Database (COD),
# http://www.crystallography.net/. The original data for this entry
# were provided the American Mineralogist Crystal Structure Database,
# http://rruff.geo.arizona.edu/AMS/amcsd.php
#
# The file may be used within the scientific community so long as
# proper attribution is given to the journal article from which the
# data were obtained.
#
data_9001828
loop_
_publ_author_name
'Della Ventura, G.'
'Robert, J.-L.'
'Raudsepp, M.'
'Hawthorne, F. C.'
'Welch, M. D.'
_publ_section_title
;Site occupancies in synthetic monoclinic amphiboles: Rietveld structure
 refinement and infrared spectroscopy of (nickel, magnesium,
 cobalt)-richterite Sample: Co80
;
_journal_name_full               'American Mineralogist'
_journal_page_first              291
_journal_page_last               301
_journal_volume                  82
_journal_year                    1997
_chemical_formula_sum            'Ca Co3.87 Mg1.13 Na3 O24 Si8'
_chemical_name_mineral           Richterite
_space_group_IT_number           12
_symmetry_space_group_name_Hall  '-C 2y'
_symmetry_space_group_name_H-M   'C 1 2/m 1'
_cell_angle_alpha                90
_cell_angle_beta                 104.413
_cell_angle_gamma                90
_cell_length_a                   9.9568
_cell_length_b                   18.049
_cell_length_c                   5.2742
_cell_volume                     917.997
_exptl_crystal_density_diffrn    3.521
_cod_original_formula_sum        'Si8 (Mg1.13 Co3.87) Ca Na3 O24'
_cod_database_code               9001828
loop_
_symmetry_equiv_pos_as_xyz
x,y,z
1/2+x,1/2+y,z
x,-y,z
1/2+x,1/2-y,z
-x,y,-z
1/2-x,1/2+y,-z
-x,-y,-z
1/2-x,1/2-y,-z
loop_
_atom_site_label
_atom_site_fract_x
_atom_site_fract_y
_atom_site_fract_z
_atom_site_occupancy
Si1 0.28350 0.08410 0.28960 1.00000
Si2 0.28660 0.16920 0.80410 1.00000
Mg1 0.00000 0.08890 0.50000 0.18000
Co1 0.00000 0.08890 0.50000 0.82000
Mg2 0.00000 0.18020 0.00000 0.28000
Co2 0.00000 0.18020 0.00000 0.72000
Mg3 0.00000 0.00000 0.00000 0.21000
Co3 0.00000 0.00000 0.00000 0.79000
Ca4 0.00000 0.27400 0.50000 0.50000
Na4 0.00000 0.27400 0.50000 0.50000
NaA 0.00000 0.48050 0.00000 1.00000
O1 0.11360 0.08720 0.21630 1.00000
O2 0.11570 0.17220 0.73000 1.00000
O3 0.10990 0.00000 0.70000 1.00000
O4 0.35730 0.24540 0.77350 1.00000
O5 0.34870 0.12740 0.09180 1.00000
O6 0.34490 0.11340 0.58830 1.00000
O7 0.34670 0.00000 0.30550 1.00000
