#------------------------------------------------------------------------------
#$Date: 2016-02-16 14:49:47 +0200 (Tue, 16 Feb 2016) $
#$Revision: 176465 $
#$URL: svn://www.crystallography.net/cod/cif/9/00/13/9001337.cif $
#------------------------------------------------------------------------------
#
# This file is available in the Crystallography Open Database (COD),
# http://www.crystallography.net/. The original data for this entry
# were provided the American Mineralogist Crystal Structure Database,
# http://rruff.geo.arizona.edu/AMS/amcsd.php
#
# The file may be used within the scientific community so long as
# proper attribution is given to the journal article from which the
# data were obtained.
#
data_9001337
loop_
_publ_author_name
'Oberti, R.'
'Caporuscio, F. A.'
_publ_section_title
;Crystal chemistry of clinopyroxenes from mantle eclogites: A study of the key
 role of the M2 site population by means of crystal-structure refinement
 sample SBB 39, Di52Jd27, diopside - jadeite join
;
_journal_name_full               'American Mineralogist'
_journal_page_first              1141
_journal_page_last               1152
_journal_volume                  76
_journal_year                    1991
_chemical_formula_sum
'Al0.27 Ca0.52 Fe0.24 Mg0.66 Mn0.01 Na0.29 O6 Si2 Ti0.01'
_chemical_name_mineral           Diopside
_space_group_IT_number           15
_symmetry_space_group_name_Hall  '-C 2yc'
_symmetry_space_group_name_H-M   'C 1 2/c 1'
_cell_angle_alpha                90
_cell_angle_beta                 107.04
_cell_angle_gamma                90
_cell_length_a                   9.644
_cell_length_b                   8.820
_cell_length_c                   5.256
_cell_volume                     427.449
_exptl_crystal_density_diffrn    3.379
_cod_original_formula_sum
'Mg.66 Al.27 Fe.24 Ti.01 Mn.01 Ca.52 Na.29 Si2 O6'
_cod_database_code               9001337
loop_
_symmetry_equiv_pos_as_xyz
x,y,z
1/2+x,1/2+y,z
x,-y,1/2+z
1/2+x,1/2-y,1/2+z
-x,y,1/2-z
1/2-x,1/2+y,1/2-z
-x,-y,-z
1/2-x,1/2-y,-z
loop_
_atom_site_label
_atom_site_fract_x
_atom_site_fract_y
_atom_site_fract_z
_atom_site_occupancy
_atom_site_U_iso_or_equiv
Mg1 0.00000 0.90510 0.25000 0.57000 0.00798
Al1 0.00000 0.90510 0.25000 0.27000 0.00798
Fe1 0.00000 0.90510 0.25000 0.14000 0.00798
Ti1 0.00000 0.90510 0.25000 0.01000 0.00798
Mn1 0.00000 0.90510 0.25000 0.01000 0.00798
Ca2 0.00000 0.29580 0.25000 0.52000 0.01355
Na2 0.00000 0.29580 0.25000 0.29000 0.01355
Fe2 0.00000 0.29580 0.25000 0.10000 0.00532
Mg2 0.00000 0.29580 0.25000 0.09000 0.00532
Si 0.28920 0.09220 0.23470 1.00000 0.00697
O1 0.11460 0.08370 0.13930 1.00000 0.01178
O2 0.36260 0.25320 0.31780 1.00000 0.01482
O3 0.35220 0.01510 0.00440 1.00000 0.01102
