#------------------------------------------------------------------------------
#$Date: 2016-02-16 14:49:47 +0200 (Tue, 16 Feb 2016) $
#$Revision: 176465 $
#$URL: svn://www.crystallography.net/cod/cif/9/00/18/9001827.cif $
#------------------------------------------------------------------------------
#
# This file is available in the Crystallography Open Database (COD),
# http://www.crystallography.net/. The original data for this entry
# were provided the American Mineralogist Crystal Structure Database,
# http://rruff.geo.arizona.edu/AMS/amcsd.php
#
# The file may be used within the scientific community so long as
# proper attribution is given to the journal article from which the
# data were obtained.
#
data_9001827
loop_
_publ_author_name
'Della Ventura, G.'
'Robert, J.-L.'
'Raudsepp, M.'
'Hawthorne, F. C.'
'Welch, M. D.'
_publ_section_title
;Site occupancies in synthetic monoclinic amphiboles: Rietveld structure
 refinement and infrared spectroscopy of (nickel, magnesium,
 cobalt)-richterite Sample: Co60
;
_journal_name_full               'American Mineralogist'
_journal_page_first              291
_journal_page_last               301
_journal_volume                  82
_journal_year                    1997
_chemical_formula_sum            'Ca1.1 Co3.04 Mg1.96 Na2.76 O24 Si8'
_chemical_name_mineral           Richterite
_space_group_IT_number           12
_symmetry_space_group_name_Hall  '-C 2y'
_symmetry_space_group_name_H-M   'C 1 2/m 1'
_cell_angle_alpha                90
_cell_angle_beta                 104.259
_cell_angle_gamma                90
_cell_length_a                   9.9436
_cell_length_b                   18.029
_cell_length_c                   5.2740
_cell_volume                     916.358
_exptl_crystal_density_diffrn    3.418
_cod_original_formula_sum        'Si8 (Mg1.96 Co3.04) Ca1.1 Na2.76 O24'
_cod_database_code               9001827
loop_
_symmetry_equiv_pos_as_xyz
x,y,z
1/2+x,1/2+y,z
x,-y,z
1/2+x,1/2-y,z
-x,y,-z
1/2-x,1/2+y,-z
-x,-y,-z
1/2-x,1/2-y,-z
loop_
_atom_site_label
_atom_site_fract_x
_atom_site_fract_y
_atom_site_fract_z
_atom_site_occupancy
Si1 0.28090 0.08470 0.29370 1.00000
Si2 0.28820 0.17110 0.80110 1.00000
Mg1 0.00000 0.08970 0.50000 0.37000
Co1 0.00000 0.08970 0.50000 0.63000
Mg2 0.00000 0.17870 0.00000 0.44000
Co2 0.00000 0.17870 0.00000 0.56000
Mg3 0.00000 0.00000 0.00000 0.34000
Co3 0.00000 0.00000 0.00000 0.66000
Ca4 0.00000 0.27450 0.50000 0.55000
Na4 0.00000 0.27450 0.50000 0.45000
NaA 0.00000 0.48090 0.00000 0.93000
O1 0.11560 0.08940 0.22000 1.00000
O2 0.11460 0.17310 0.72520 1.00000
O3 0.11560 0.00000 0.70910 1.00000
O4 0.36270 0.24720 0.77400 1.00000
O5 0.34800 0.12910 0.08800 1.00000
O6 0.34240 0.11360 0.59460 1.00000
O7 0.34550 0.00000 0.30620 1.00000
