#------------------------------------------------------------------------------
#$Date: 2017-01-24 14:42:25 +0200 (Tue, 24 Jan 2017) $
#$Revision: 190882 $
#$URL: file:///home/coder/svn-repositories/cod/cif/9/00/11/9001130.cif $
#------------------------------------------------------------------------------
#
# This file is available in the Crystallography Open Database (COD),
# http://www.crystallography.net/. The original data for this entry
# were provided the American Mineralogist Crystal Structure Database,
# http://rruff.geo.arizona.edu/AMS/amcsd.php
#
# The file may be used within the scientific community so long as
# proper attribution is given to the journal article from which the
# data were obtained.
#
data_9001130
loop_
_publ_author_name
'Armbruster, T.'
'Oberhansli, R.'
_publ_section_title
;Crystal chemistry of double-ring silicates: Structural, chemical, and optical
 variation in osumilites Sample: Japan-Shimizu
;
_journal_name_full               'American Mineralogist'
_journal_page_first              585
_journal_page_last               594
_journal_volume                  73
_journal_year                    1988
_chemical_formula_sum            'Al4.38 Fe1.3 K0.74 Mg0.88 O30 Si10.44'
_chemical_name_mineral           Osumilite
_space_group_IT_number           192
_symmetry_space_group_name_Hall  '-P 6 2c'
_symmetry_space_group_name_H-M   'P 6/m c c'
_cell_angle_alpha                90
_cell_angle_beta                 90
_cell_angle_gamma                120
_cell_length_a                   10.145
_cell_length_b                   10.145
_cell_length_c                   14.289
_cell_volume                     1273.610
_exptl_crystal_density_diffrn    2.645
_cod_original_formula_sum        'K.74 Fe1.3 Mg.88 Si10.44 Al4.38 O30'
_cod_database_code               9001130
_cod_depositor_comments
;
 Adding the _atom_site_type_symbol data item.

 Antanas Vaitkus,
 2017-01-24
;
loop_
_symmetry_equiv_pos_as_xyz
x,y,z
-x,-x+y,1/2+z
x,x-y,1/2-z
-x+y,-x,-z
x-y,x,z
-y,-x,1/2+z
y,x,1/2-z
y,-x+y,-z
-y,x-y,z
x-y,-y,1/2+z
-x+y,y,1/2-z
x,y,-z
-x,-y,z
x,x-y,1/2+z
-x,-x+y,1/2-z
x-y,x,-z
-x+y,-x,z
y,x,1/2+z
-y,-x,1/2-z
-y,x-y,-z
y,-x+y,z
-x+y,y,1/2+z
x-y,-y,1/2-z
-x,-y,-z
loop_
_atom_site_aniso_label
_atom_site_aniso_U_11
_atom_site_aniso_U_22
_atom_site_aniso_U_33
_atom_site_aniso_U_12
_atom_site_aniso_U_13
_atom_site_aniso_U_23
KC 0.03070 0.03070 0.03400 0.01535 0.00000 0.00000
FeA 0.00720 0.00720 0.00990 0.00360 0.00000 0.00000
MgA 0.00720 0.00720 0.00990 0.00360 0.00000 0.00000
Si1 0.00880 0.01050 0.00680 0.00550 0.00130 0.00130
Al1 0.00880 0.01050 0.00680 0.00550 0.00130 0.00130
Fe2 0.01020 0.01020 0.00630 0.00730 0.00000 0.00000
Al2 0.01020 0.01020 0.00630 0.00730 0.00000 0.00000
O1 0.02780 0.02140 0.00860 0.01180 0.00000 0.00000
O2 0.02610 0.03360 0.02280 0.02330 -0.00110 -0.00360
O3 0.01640 0.01760 0.01200 0.01060 -0.00280 -0.00490
loop_
_atom_site_label
_atom_site_type_symbol
_atom_site_fract_x
_atom_site_fract_y
_atom_site_fract_z
_atom_site_occupancy
KC K 0.00000 0.00000 0.25000 0.74000
FeA Fe 0.33333 0.66667 0.25000 0.56000
MgA Mg 0.33333 0.66667 0.25000 0.44000
Si1 Si 0.24750 0.35070 0.39190 0.87000
Al1 Al 0.24750 0.35070 0.39190 0.13000
Fe2 Fe 0.50000 0.50000 0.25000 0.06000
Al2 Al 0.50000 0.50000 0.25000 0.94000
O1 O 0.11980 0.40440 0.00000 1.00000
O2 O 0.21450 0.28330 0.13159 1.00000
O3 O 0.13730 0.49040 0.17887 1.00000
