#------------------------------------------------------------------------------
#$Date: 2016-02-16 14:49:47 +0200 (Tue, 16 Feb 2016) $
#$Revision: 176465 $
#$URL: svn://www.crystallography.net/cod/cif/9/00/25/9002552.cif $
#------------------------------------------------------------------------------
#
# This file is available in the Crystallography Open Database (COD),
# http://www.crystallography.net/. The original data for this entry
# were provided the American Mineralogist Crystal Structure Database,
# http://rruff.geo.arizona.edu/AMS/amcsd.php
#
# The file may be used within the scientific community so long as
# proper attribution is given to the journal article from which the
# data were obtained.
#
data_9002552
loop_
_publ_author_name
'Meyer, H. W.'
'Marion, S.'
'Sondergeld, P.'
'Carpenter, M. A.'
'Knight, K. S.'
'Redfern, S. A. T.'
'Dove, M. T.'
_publ_section_title
;
 Displacive components of the low-temperature phase transitions in lawsonite
 T = 350 K
;
_journal_name_full               'American Mineralogist'
_journal_page_first              566
_journal_page_last               577
_journal_volume                  86
_journal_year                    2001
_chemical_formula_sum            'Al1.94 Ca D4 Fe0.06 O10 Si2'
_chemical_name_mineral           'Lawsonite (deuterated)'
_symmetry_space_group_name_H-M   'C m c m'
_cell_angle_alpha                90
_cell_angle_beta                 90
_cell_angle_gamma                90
_cell_length_a                   5.85603
_cell_length_b                   8.80228
_cell_length_c                   13.1442
_cell_volume                     677.536
_diffrn_ambient_temperature      350
_exptl_crystal_density_diffrn    3.137
_cod_original_formula_sum        'Ca (Al1.94 Fe.06) Si2 O10 D4'
_cod_database_code               9002552
loop_
_symmetry_equiv_pos_as_xyz
x,y,z
1/2+x,1/2+y,z
x,1/2-y,1/2+z
1/2+x,-y,1/2+z
1/2-x,y,1/2-z
-x,1/2+y,1/2-z
1/2-x,y,z
-x,1/2+y,z
x,1/2-y,-z
1/2+x,-y,-z
x,y,1/2-z
1/2+x,1/2+y,1/2-z
1/2-x,1/2-y,1/2+z
-x,-y,1/2+z
1/2-x,1/2-y,-z
-x,-y,-z
loop_
_atom_site_label
_atom_site_fract_x
_atom_site_fract_y
_atom_site_fract_z
_atom_site_occupancy
_atom_site_U_iso_or_equiv
Ca -0.25000 0.08050 0.25000 1.00000 0.01400
Al 0.00000 0.25000 0.00000 0.97000 0.00700
Fe 0.00000 0.25000 0.00000 0.03000 0.00700
Si -0.25000 0.73110 0.13310 1.00000 0.00490
O1 -0.25000 -0.20330 0.25000 1.00000 0.00710
O2 0.02230 0.12900 0.11640 1.00000 0.00740
O3 -0.25000 -0.11250 0.06770 1.00000 0.00200
O4 -0.25000 0.39150 0.04820 1.00000 0.01420
O5 -0.25000 0.36150 0.25000 1.00000 0.02100
Dw -0.25000 0.41600 0.18860 1.00000 0.06200
Dd -0.25000 0.28960 0.05560 1.00000 0.07600
