#------------------------------------------------------------------------------
#$Date: 2016-02-16 14:49:47 +0200 (Tue, 16 Feb 2016) $
#$Revision: 176465 $
#$URL: svn://www.crystallography.net/cod/cif/9/00/25/9002585.cif $
#------------------------------------------------------------------------------
#
# This file is available in the Crystallography Open Database (COD),
# http://www.crystallography.net/. The original data for this entry
# were provided the American Mineralogist Crystal Structure Database,
# http://rruff.geo.arizona.edu/AMS/amcsd.php
#
# The file may be used within the scientific community so long as
# proper attribution is given to the journal article from which the
# data were obtained.
#
data_9002585
loop_
_publ_author_name
'Henderson, C. M. B.'
'Redfern, S. A. T.'
'Smith, R. I.'
'Knight, K. S.'
'Charnock, J. M.'
_publ_section_title
;Composition and temperature dependence of cation ordering in Ni-Mg olivine
 solid solutions: a time-of-flight neutron powder diffraction and EXAFS study
 Sample: Mg85Ni15 at room temperature
;
_journal_name_full               'American Mineralogist'
_journal_page_first              1170
_journal_page_last               1187
_journal_volume                  86
_journal_year                    2001
_chemical_formula_structural     Mg1.7Ni0.3(SiO4)
_chemical_formula_sum            'Mg1.7 Ni0.3 O4 Si'
_chemical_name_mineral           Olivine
_space_group_IT_number           62
_symmetry_space_group_name_Hall  '-P 2c 2ab'
_symmetry_space_group_name_H-M   'P b n m'
_cell_angle_alpha                90
_cell_angle_beta                 90
_cell_angle_gamma                90
_cell_length_a                   4.7515
_cell_length_b                   10.199
_cell_length_c                   5.9696
_cell_volume                     289.290
_exptl_crystal_density_diffrn    3.467
_cod_original_formula_sum        'Si O4 (Ni.3 Mg1.7)'
_cod_database_code               9002585
loop_
_symmetry_equiv_pos_as_xyz
x,y,z
x,y,1/2-z
-x,-y,1/2+z
1/2+x,1/2-y,1/2+z
1/2-x,1/2+y,1/2-z
1/2-x,1/2+y,z
1/2+x,1/2-y,-z
-x,-y,-z
loop_
_atom_site_label
_atom_site_fract_x
_atom_site_fract_y
_atom_site_fract_z
_atom_site_occupancy
_atom_site_U_iso_or_equiv
Si 0.42560 0.09380 0.25000 1.00000 0.00304
O1 0.76670 0.09240 0.25000 1.00000 0.00519
O2 0.22110 0.44680 0.25000 1.00000 0.00545
O3 0.27660 0.16290 0.03280 1.00000 0.00557
Ni1 0.00000 0.00000 0.00000 0.26000 0.00469
Mg1 0.00000 0.00000 0.00000 0.74000 0.00469
Ni2 0.99090 0.27690 0.25000 0.04000 0.00570
Mg2 0.99090 0.27690 0.25000 0.96000 0.00570
