#------------------------------------------------------------------------------
#$Date: 2016-02-16 14:49:47 +0200 (Tue, 16 Feb 2016) $
#$Revision: 176465 $
#$URL: svn://www.crystallography.net/cod/cif/9/00/25/9002586.cif $
#------------------------------------------------------------------------------
#
# This file is available in the Crystallography Open Database (COD),
# http://www.crystallography.net/. The original data for this entry
# were provided the American Mineralogist Crystal Structure Database,
# http://rruff.geo.arizona.edu/AMS/amcsd.php
#
# The file may be used within the scientific community so long as
# proper attribution is given to the journal article from which the
# data were obtained.
#
data_9002586
loop_
_publ_author_name
'Henderson, C. M. B.'
'Redfern, S. A. T.'
'Smith, R. I.'
'Knight, K. S.'
'Charnock, J. M.'
_publ_section_title
;Composition and temperature dependence of cation ordering in Ni-Mg olivine
 solid solutions: A time-of-flight neutron powder diffraction and EXAFS study
 Sample: Mg80Ni20 at room temperature
;
_journal_name_full               'American Mineralogist'
_journal_page_first              1170
_journal_page_last               1187
_journal_volume                  86
_journal_year                    2001
_chemical_formula_structural     Mg1.6Ni0.4(SiO4)
_chemical_formula_sum            'Mg1.6 Ni0.4 O4 Si'
_chemical_name_mineral           Olivine
_space_group_IT_number           62
_symmetry_space_group_name_Hall  '-P 2c 2ab'
_symmetry_space_group_name_H-M   'P b n m'
_cell_angle_alpha                90
_cell_angle_beta                 90
_cell_angle_gamma                90
_cell_length_a                   4.7487
_cell_length_b                   10.201
_cell_length_c                   5.9678
_cell_volume                     289.089
_exptl_crystal_density_diffrn    3.549
_cod_original_formula_sum        'Si O4 (Ni.4 Mg1.6)'
_cod_database_code               9002586
loop_
_symmetry_equiv_pos_as_xyz
x,y,z
x,y,1/2-z
-x,-y,1/2+z
1/2+x,1/2-y,1/2+z
1/2-x,1/2+y,1/2-z
1/2-x,1/2+y,z
1/2+x,1/2-y,-z
-x,-y,-z
loop_
_atom_site_label
_atom_site_fract_x
_atom_site_fract_y
_atom_site_fract_z
_atom_site_occupancy
_atom_site_U_iso_or_equiv
Si 0.42530 0.09360 0.25000 1.00000 0.00355
O1 0.76640 0.09240 0.25000 1.00000 0.00570
O2 0.22180 0.44670 0.25000 1.00000 0.00595
O3 0.27650 0.16260 0.03240 1.00000 0.00621
Ni1 0.00000 0.00000 0.00000 0.34800 0.00494
Mg1 0.00000 0.00000 0.00000 0.65200 0.00494
Ni2 0.99100 0.27680 0.25000 0.05200 0.00608
Mg2 0.99100 0.27680 0.25000 0.94800 0.00608
