#------------------------------------------------------------------------------
#$Date: 2016-02-16 14:49:47 +0200 (Tue, 16 Feb 2016) $
#$Revision: 176465 $
#$URL: svn://www.crystallography.net/cod/cif/9/00/25/9002587.cif $
#------------------------------------------------------------------------------
#
# This file is available in the Crystallography Open Database (COD),
# http://www.crystallography.net/. The original data for this entry
# were provided the American Mineralogist Crystal Structure Database,
# http://rruff.geo.arizona.edu/AMS/amcsd.php
#
# The file may be used within the scientific community so long as
# proper attribution is given to the journal article from which the
# data were obtained.
#
data_9002587
loop_
_publ_author_name
'Henderson, C. M. B.'
'Redfern, S. A. T.'
'Smith, R. I.'
'Knight, K. S.'
'Charnock, J. M.'
_publ_section_title
;Composition and temperature dependence of cation ordering in Ni-Mg olivine
 solid solutions: A time-of-flight neutron powder diffraction and EXAFS study
 Sample: Mg75Ni25 at room temperature
;
_journal_name_full               'American Mineralogist'
_journal_page_first              1170
_journal_page_last               1187
_journal_volume                  86
_journal_year                    2001
_chemical_formula_structural     Mg1.5Ni0.5(SiO4)
_chemical_formula_sum            'Mg1.5 Ni0.5 O4 Si'
_chemical_name_mineral           Olivine
_space_group_IT_number           62
_symmetry_space_group_name_Hall  '-P 2c 2ab'
_symmetry_space_group_name_H-M   'P b n m'
_cell_angle_alpha                90
_cell_angle_beta                 90
_cell_angle_gamma                90
_cell_length_a                   4.7473
_cell_length_b                   10.196
_cell_length_c                   5.9597
_cell_volume                     288.470
_exptl_crystal_density_diffrn    3.635
_cod_original_formula_sum        'Si O4 (Ni.5 Mg1.5)'
_cod_database_code               9002587
loop_
_symmetry_equiv_pos_as_xyz
x,y,z
x,y,1/2-z
-x,-y,1/2+z
1/2+x,1/2-y,1/2+z
1/2-x,1/2+y,1/2-z
1/2-x,1/2+y,z
1/2+x,1/2-y,-z
-x,-y,-z
loop_
_atom_site_label
_atom_site_fract_x
_atom_site_fract_y
_atom_site_fract_z
_atom_site_occupancy
_atom_site_U_iso_or_equiv
Si 0.42560 0.09370 0.25000 1.00000 0.00329
O1 0.76700 0.09270 0.25000 1.00000 0.00532
O2 0.22080 0.44640 0.25000 1.00000 0.00570
O3 0.27630 0.16270 0.03250 1.00000 0.00570
Ni1 0.00000 0.00000 0.00000 0.42400 0.00494
Mg1 0.00000 0.00000 0.00000 0.57600 0.00494
Ni2 0.99080 0.27650 0.25000 0.07600 0.00570
Mg2 0.99080 0.27650 0.25000 0.92400 0.00570
