#------------------------------------------------------------------------------
#$Date: 2016-02-16 14:49:47 +0200 (Tue, 16 Feb 2016) $
#$Revision: 176465 $
#$URL: svn://www.crystallography.net/cod/cif/9/00/21/9002147.cif $
#------------------------------------------------------------------------------
#
# This file is available in the Crystallography Open Database (COD),
# http://www.crystallography.net/. The original data for this entry
# were provided the American Mineralogist Crystal Structure Database,
# http://rruff.geo.arizona.edu/AMS/amcsd.php
#
# The file may be used within the scientific community so long as
# proper attribution is given to the journal article from which the
# data were obtained.
#
data_9002147
loop_
_publ_author_name
'Downs, R. T.'
'Yang, H.'
'Hazen, R. M.'
'Finger, L. W.'
'Prewitt, C. T.'
_publ_section_title
;
 Compressibility mechanisms of alkali feldspars: New data from reedmergnerite
 Sample from Joseph Smith #1 mine, Duchesne Co., Utah,  NMNH 140
 P = 0.00 GPa, in cell
;
_journal_name_full               'American Mineralogist'
_journal_page_first              333
_journal_page_last               340
_journal_volume                  84
_journal_year                    1999
_chemical_formula_sum            'B Na O8 Si3'
_chemical_name_mineral           Reedmergnerite
_space_group_IT_number           2
_symmetry_space_group_name_Hall  '-P 1 (1/2*x+1/2*y,1/2*x-1/2*y,-z)'
_symmetry_space_group_name_H-M   'C -1'
_cell_angle_alpha                93.311
_cell_angle_beta                 116.363
_cell_angle_gamma                92.043
_cell_length_a                   7.8389
_cell_length_b                   12.3715
_cell_length_c                   6.8065
_cell_volume                     589.062
_diffrn_ambient_pressure         0
_exptl_crystal_density_diffrn    2.774
_cod_original_formula_sum        'Na B Si3 O8'
_cod_database_code               9002147
loop_
_symmetry_equiv_pos_as_xyz
x,y,z
1/2+x,1/2+y,z
-x,-y,-z
1/2-x,1/2-y,-z
loop_
_atom_site_aniso_label
_atom_site_aniso_U_11
_atom_site_aniso_U_22
_atom_site_aniso_U_33
_atom_site_aniso_U_12
_atom_site_aniso_U_13
_atom_site_aniso_U_23
Na 0.01278 0.02595 0.01293 0.00321 0.00352 -0.00379
loop_
_atom_site_label
_atom_site_fract_x
_atom_site_fract_y
_atom_site_fract_z
_atom_site_U_iso_or_equiv
Na 0.25866 0.00757 0.13442 ?
B 0.01340 0.16114 0.22209 0.00671
Si1m 0.00624 0.80987 0.20976 0.00671
Si2o 0.70291 0.10201 0.32052 0.00633
Si2m 0.68571 0.86460 0.35660 0.00621
O(A1) 0.00705 0.13697 0.00166 0.01064
O(A2) 0.59274 0.98109 0.27505 0.00760
O(B)o 0.84479 0.09912 0.21180 0.01077
O(B)m 0.81586 0.83462 0.23184 0.01216
O(C)o 0.00621 0.27687 0.27265 0.00811
O(C)m 0.02949 0.67977 0.20669 0.00963
O(D)o 0.19037 0.11875 0.38274 0.01241
O(D)m 0.19072 0.86760 0.41510 0.01305
