#------------------------------------------------------------------------------
#$Date: 2016-02-16 14:49:47 +0200 (Tue, 16 Feb 2016) $
#$Revision: 176465 $
#$URL: svn://www.crystallography.net/cod/cif/9/00/22/9002207.cif $
#------------------------------------------------------------------------------
#
# This file is available in the Crystallography Open Database (COD),
# http://www.crystallography.net/. The original data for this entry
# were provided the American Mineralogist Crystal Structure Database,
# http://rruff.geo.arizona.edu/AMS/amcsd.php
#
# The file may be used within the scientific community so long as
# proper attribution is given to the journal article from which the
# data were obtained.
#
data_9002207
loop_
_publ_author_name
'Sharma, A.'
'Jenkins, D. M.'
_publ_section_title
;
 Hydrothermal synthesis of amphiboles along the tremolite-pargasite join
 and in the ternary system tremolite-pargasite-cummingtonite
 Sample: PARG 11-7
;
_journal_name_full               'American Mineralogist'
_journal_page_first              1304
_journal_page_last               1318
_journal_volume                  84
_journal_year                    1999
_chemical_formula_sum            'Al2.8 Ca1.86 Mg4.34 Na0.94 O24 Si6'
_chemical_name_mineral           Pargasite
_space_group_IT_number           12
_symmetry_space_group_name_Hall  '-C 2y'
_symmetry_space_group_name_H-M   'C 1 2/m 1'
_cell_angle_alpha                90
_cell_angle_beta                 105.505
_cell_angle_gamma                90
_cell_length_a                   9.8929
_cell_length_b                   17.944
_cell_length_c                   5.2804
_cell_volume                     903.254
_exptl_crystal_density_diffrn    3.051
_cod_original_formula_sum        'O24 Si6 Al2.8 Mg4.34 Ca1.86 Na.94'
_cod_database_code               9002207
loop_
_symmetry_equiv_pos_as_xyz
x,y,z
1/2+x,1/2+y,z
x,-y,z
1/2+x,1/2-y,z
-x,y,-z
1/2-x,1/2+y,-z
-x,-y,-z
1/2-x,1/2-y,-z
loop_
_atom_site_label
_atom_site_fract_x
_atom_site_fract_y
_atom_site_fract_z
_atom_site_occupancy
_atom_site_U_iso_or_equiv
O1 0.11160 0.08640 0.22180 1.00000 0.01013
O2 0.11730 0.17260 0.72740 1.00000 0.01013
O3 0.10780 0.00000 0.72260 1.00000 0.01013
O4 0.36050 0.25000 0.78260 1.00000 0.01013
O5 0.35370 0.14140 0.12960 1.00000 0.01393
O6 0.34010 0.11410 0.62490 1.00000 0.01393
O7 0.34610 0.00000 0.27840 1.00000 0.01520
Si1 0.28220 0.08550 0.30820 0.75000 0.00507
Al1 0.28220 0.08550 0.30820 0.25000 0.00507
Si2 0.28880 0.17220 0.81130 0.75000 0.00507
Al2 0.28880 0.17220 0.81130 0.25000 0.00507
Mg1 0.00000 0.08730 0.50000 0.84000 0.00760
Al1 0.00000 0.08730 0.50000 0.16000 0.00760
Mg2 0.00000 0.17650 0.50000 0.84000 0.00760
Al2 0.00000 0.17650 0.50000 0.16000 0.00760
Mg3 0.00000 0.00000 0.00000 0.84000 0.00760
Al3 0.00000 0.00000 0.00000 0.16000 0.00760
Ca4 0.00000 0.27940 0.50000 0.93000 0.01140
Mg4 0.00000 0.27940 0.50000 0.07000 0.01140
NaA 0.00000 0.50000 0.00000 0.94000 0.02913
