#------------------------------------------------------------------------------
#$Date: 2016-02-16 14:49:47 +0200 (Tue, 16 Feb 2016) $
#$Revision: 176465 $
#$URL: svn://www.crystallography.net/cod/cif/9/00/37/9003766.cif $
#------------------------------------------------------------------------------
#
# This file is available in the Crystallography Open Database (COD),
# http://www.crystallography.net/. The original data for this entry
# were provided the American Mineralogist Crystal Structure Database,
# http://rruff.geo.arizona.edu/AMS/amcsd.php
#
# The file may be used within the scientific community so long as
# proper attribution is given to the journal article from which the
# data were obtained.
#
data_9003766
loop_
_publ_author_name
'Ellemann-Olesen R'
'Malcherek, T.'
_publ_section_title
;A high-temperature diffraction study of the solid solution CaTiOSiO4 -
 CaTiOGeO4 Note: Titanite structure Sample: #50, CaTiO(Ge.49Si.51)O4
;
_journal_name_full               'American Mineralogist'
_journal_page_first              1325
_journal_page_last               1334
_journal_paper_doi               10.2138/am.2005.1729
_journal_volume                  90
_journal_year                    2005
_chemical_formula_structural     'CaTiOSiO4 - CaTiOGeO4 join'
_chemical_formula_sum            'Ca Ge0.49 O5 Si0.51 Ti'
_space_group_IT_number           14
_symmetry_space_group_name_Hall  '-P 2yab'
_symmetry_space_group_name_H-M   'P 1 21/a 1'
_cell_angle_alpha                90
_cell_angle_beta                 113.757
_cell_angle_gamma                90
_cell_length_a                   7.09534
_cell_length_b                   8.79173
_cell_length_c                   6.59620
_cell_volume                     376.606
_exptl_crystal_density_diffrn    3.842
_cod_original_formula_sum        'Ca Ti (Ge.49 Si.51) O5'
_cod_database_code               9003766
loop_
_symmetry_equiv_pos_as_xyz
x,y,z
1/2+x,1/2-y,z
1/2-x,1/2+y,-z
-x,-y,-z
loop_
_atom_site_label
_atom_site_fract_x
_atom_site_fract_y
_atom_site_fract_z
_atom_site_occupancy
_atom_site_U_iso_or_equiv
Ca 0.24650 0.41990 0.25690 1.00000 0.01900
Ti 0.50470 0.25070 0.74600 1.00000 0.02500
Ge 0.75290 0.43140 0.24690 0.49000 0.01900
Si 0.75290 0.43140 0.24690 0.51000 0.01900
O1 0.74530 0.32150 0.77650 1.00000 0.00500
O2A 0.92890 0.32160 0.45960 1.00000 0.00500
O2B 0.10210 0.20220 0.08600 1.00000 0.00500
O3A 0.40000 0.47390 0.65900 1.00000 0.00500
O3B 0.61970 0.04850 0.87560 1.00000 0.00500
