#------------------------------------------------------------------------------
#$Date: 2016-02-16 14:49:47 +0200 (Tue, 16 Feb 2016) $
#$Revision: 176465 $
#$URL: svn://www.crystallography.net/cod/cif/9/00/38/9003855.cif $
#------------------------------------------------------------------------------
#
# This file is available in the Crystallography Open Database (COD),
# http://www.crystallography.net/. The original data for this entry
# were provided the American Mineralogist Crystal Structure Database,
# http://rruff.geo.arizona.edu/AMS/amcsd.php
#
# The file may be used within the scientific community so long as
# proper attribution is given to the journal article from which the
# data were obtained.
#
data_9003855
loop_
_publ_author_name
'Domeneghetti, M. C.'
'Zema, M.'
'Tazzoli, V.'
_publ_section_title
;
 Kinetics of Fe2+-Mg order-disorder in P2_1/c pigeonite
 Locality: Parana, Brazil
 Sample: N.13, annealed at T = 650 C for t = 80 min
;
_journal_name_full               'American Mineralogist'
_journal_page_first              1816
_journal_page_last               1823
_journal_paper_doi               10.2138/am.2005.1773
_journal_volume                  90
_journal_year                    2005
_chemical_formula_sum
'Al0.016 Ca0.19 Fe0.852 Mg0.915 Mn0.029 Na0.003 O6 Si1.984 Ti0.01'
_chemical_name_mineral           Pigeonite
_space_group_IT_number           14
_symmetry_space_group_name_Hall  '-P 2ybc'
_symmetry_space_group_name_H-M   'P 1 21/c 1'
_cell_angle_alpha                90
_cell_angle_beta                 108.515
_cell_angle_gamma                90
_cell_length_a                   9.7096
_cell_length_b                   8.9413
_cell_length_c                   5.2473
_cell_volume                     431.973
_exptl_crystal_density_diffrn    3.564
_exptl_crystal_thermal_history   'annealed at T = 650 C for t = 80 min'
_cod_original_formula_sum
'Mg.915 Fe.852 Ca.19 Mn.029 Na.003 Ti.01 Si1.984 Al.016 O6'
_cod_database_code               9003855
loop_
_symmetry_equiv_pos_as_xyz
x,y,z
x,1/2-y,1/2+z
-x,1/2+y,1/2-z
-x,-y,-z
loop_
_atom_site_aniso_label
_atom_site_aniso_U_11
_atom_site_aniso_U_22
_atom_site_aniso_U_33
_atom_site_aniso_U_12
_atom_site_aniso_U_13
_atom_site_aniso_U_23
MgM2A 0.00969 0.01087 0.00771 0.00024 0.00046 0.00177
FeM2A 0.00969 0.01087 0.00771 0.00024 0.00046 0.00177
CaM2A 0.00969 0.01087 0.00771 0.00024 0.00046 0.00177
MnM2A 0.00969 0.01087 0.00771 0.00024 0.00046 0.00177
NaM2A 0.00969 0.01087 0.00771 0.00024 0.00046 0.00177
MgM1 0.00785 0.00687 0.00877 0.00016 0.00263 0.00041
Fe2+M1 0.00785 0.00687 0.00877 0.00016 0.00263 0.00041
Fe3+M1 0.00785 0.00687 0.00877 0.00016 0.00263 0.00041
TiM1 0.00785 0.00687 0.00877 0.00016 0.00263 0.00041
MnM1 0.00785 0.00687 0.00877 0.00016 0.00263 0.00041
SiA 0.00609 0.00595 0.01087 -0.00054 0.00343 -0.00052
SiB 0.00639 0.00607 0.00863 -0.00099 0.00278 -0.00094
AlB 0.00639 0.00607 0.00863 -0.00099 0.00278 -0.00094
O1A 0.00676 0.00877 0.01007 0.00029 0.00241 -0.00001
O2A 0.01228 0.00790 0.01485 -0.00283 0.00632 -0.00187
O3A 0.00936 0.02357 0.02117 0.00069 0.00443 0.01442
O1B 0.00669 0.00953 0.01092 0.00040 0.00319 0.00026
O2B 0.01493 0.01154 0.02158 -0.00581 0.01099 -0.00773
O3B 0.00830 0.02096 0.01441 0.00098 0.00397 0.00850
loop_
_atom_site_label
_atom_site_fract_x
_atom_site_fract_y
_atom_site_fract_z
_atom_site_occupancy
_atom_site_U_iso_or_equiv
MgM2A 0.25519 0.01698 0.22849 0.14630 ?
FeM2A 0.25519 0.01698 0.22849 0.63410 ?
CaM2A 0.25519 0.01698 0.22849 0.06780 ?
MnM2A 0.25519 0.01698 0.22849 0.02620 ?
NaM2A 0.25519 0.01698 0.22849 0.00290 ?
CaM2B 0.25324 0.04870 0.25180 0.12270 0.01454
MgM1 0.25047 0.65468 0.23239 0.76880 ?
Fe2+M1 0.25047 0.65468 0.23239 0.20330 ?
Fe3+M1 0.25047 0.65468 0.23239 0.01500 ?
TiM1 0.25047 0.65468 0.23239 0.01000 ?
MnM1 0.25047 0.65468 0.23239 0.00290 ?
SiA 0.04276 0.34048 0.27577 1.00000 ?
SiB 0.54937 0.83752 0.23915 0.98400 ?
AlB 0.54937 0.83752 0.23915 0.01600 ?
O1A 0.86762 0.33810 0.16793 1.00000 ?
O2A 0.12175 0.49932 0.33270 1.00000 ?
O3A 0.10424 0.26129 0.57679 1.00000 ?
O1B 0.37359 0.83658 0.13529 1.00000 ?
O2B 0.62887 0.98786 0.37218 1.00000 ?
O3B 0.60491 0.70934 0.48099 1.00000 ?
