#------------------------------------------------------------------------------
#$Date: 2016-02-16 14:49:47 +0200 (Tue, 16 Feb 2016) $
#$Revision: 176465 $
#$URL: svn://www.crystallography.net/cod/cif/9/00/35/9003576.cif $
#------------------------------------------------------------------------------
#
# This file is available in the Crystallography Open Database (COD),
# http://www.crystallography.net/. The original data for this entry
# were provided the American Mineralogist Crystal Structure Database,
# http://rruff.geo.arizona.edu/AMS/amcsd.php
#
# The file may be used within the scientific community so long as
# proper attribution is given to the journal article from which the
# data were obtained.
#
data_9003576
loop_
_publ_author_name
'Stimpfl, M.'
_publ_section_title
;The Mn, Mg-intracrystalline exchange reaction in donpeacorite
 (Mn0.54Ca0.03Mg1.43Si2O6) and its relation to the fractionation behavior of
 Mn in Fe, Mg-orthopyroxene Sample: quenched from 900 deg C DIS
;
_journal_name_full               'American Mineralogist'
_journal_page_first              155
_journal_page_last               161
_journal_paper_doi               10.2138/am.2005.1577
_journal_volume                  90
_journal_year                    2005
_chemical_formula_sum
'Al0.003 Ca0.024 Mg1.433 Mn0.542 O6 Si1.997 Ti0.002'
_chemical_name_mineral           Donpeacorite
_space_group_IT_number           61
_symmetry_space_group_name_Hall  '-P 2ac 2ab'
_symmetry_space_group_name_H-M   'P b c a'
_cell_angle_alpha                90
_cell_angle_beta                 90
_cell_angle_gamma                90
_cell_length_a                   18.3686
_cell_length_b                   8.8828
_cell_length_c                   5.2287
_cell_volume                     853.139
_exptl_crystal_density_diffrn    3.391
_exptl_crystal_thermal_history   'quenched from 900 deg C'
_cod_original_formula_sum
'Mg1.433 Mn.542 Ti.002 Ca.024 Si1.997 Al.003 O6'
_cod_database_code               9003576
loop_
_symmetry_equiv_pos_as_xyz
x,y,z
x,1/2-y,1/2+z
-x,1/2+y,1/2-z
1/2-x,1/2+y,z
1/2+x,1/2-y,-z
1/2+x,y,1/2-z
1/2-x,-y,1/2+z
-x,-y,-z
loop_
_atom_site_label
_atom_site_fract_x
_atom_site_fract_y
_atom_site_fract_z
_atom_site_occupancy
_atom_site_U_iso_or_equiv
Mg1 0.37542 0.65387 0.87215 0.93620 0.00670
Mn1 0.37542 0.65387 0.87215 0.06230 0.00670
Ti1 0.37542 0.65387 0.87215 0.00150 0.00670
Mg2 0.37743 0.48061 0.36829 0.49630 0.00962
Mn2 0.37743 0.48061 0.36829 0.47920 0.00962
Ca2 0.37743 0.48061 0.36829 0.02450 0.00962
SiA 0.27114 0.34111 0.04843 1.00000 0.00537
SiB 0.47481 0.33777 0.79492 0.99690 0.00539
AlB 0.47481 0.33777 0.79492 0.00310 0.00539
O1A 0.18342 0.33867 0.04050 1.00000 0.00567
O2A 0.30982 0.50160 0.04651 1.00000 0.00796
O3A 0.30228 0.22905 0.82286 1.00000 0.00870
O1B 0.56293 0.33911 0.79670 1.00000 0.00701
O2B 0.43493 0.48675 0.70004 1.00000 0.00965
O3B 0.44773 0.20355 0.59141 1.00000 0.00892
