#------------------------------------------------------------------------------
#$Date: 2016-02-16 14:49:47 +0200 (Tue, 16 Feb 2016) $
#$Revision: 176465 $
#$URL: svn://www.crystallography.net/cod/cif/9/00/34/9003422.cif $
#------------------------------------------------------------------------------
#
# This file is available in the Crystallography Open Database (COD),
# http://www.crystallography.net/. The original data for this entry
# were provided the American Mineralogist Crystal Structure Database,
# http://rruff.geo.arizona.edu/AMS/amcsd.php
#
# The file may be used within the scientific community so long as
# proper attribution is given to the journal article from which the
# data were obtained.
#
data_9003422
loop_
_publ_author_name
'Thompson, R. M.'
'Downs, R. T.'
_publ_section_title
;Model pyroxenes II: Structural variation as a function of tetrahedral
 rotation model low clinoenstatite at 700C after Pannhorst (1984) with
 O3A-O3A-O3A angle = 197.1, O3B-O3B-O3B angle = 141.6, and model oxygen radius
 = 1.307
;
_journal_name_full               'American Mineralogist'
_journal_page_first              614
_journal_page_last               628
_journal_volume                  89
_journal_year                    2004
_chemical_formula_sum            'Mg O3 Si'
_chemical_name_mineral           Pyroxene-ideal
_space_group_IT_number           14
_symmetry_space_group_name_Hall  '-P 2ybc'
_symmetry_space_group_name_H-M   'P 1 21/c 1'
_cell_angle_alpha                90
_cell_angle_beta                 108.8
_cell_angle_gamma                90
_cell_length_a                   9.764
_cell_length_b                   8.953
_cell_length_c                   5.169
_cell_volume                     427.752
_exptl_crystal_density_diffrn    3.118
_cod_original_formula_sum        'Mg Si O3'
_cod_database_code               9003422
loop_
_symmetry_equiv_pos_as_xyz
x,y,z
x,1/2-y,1/2+z
-x,1/2+y,1/2-z
-x,-y,-z
loop_
_atom_site_label
_atom_site_fract_x
_atom_site_fract_y
_atom_site_fract_z
Mg 0.24730 0.66667 0.21240
Mg 0.24730 0.00000 0.21240
SiA 0.05770 0.33333 0.30690
SiB 0.56040 0.83333 0.23660
O1A -0.11540 0.33333 0.20130
O2A 0.11540 0.50000 0.29870
O3A 0.11540 0.27170 0.61370
O1B 0.37910 0.83333 0.12610
O2B 0.62090 0.00000 0.37390
O3B 0.62090 0.69980 0.47320
