#------------------------------------------------------------------------------
#$Date: 2016-02-16 14:49:47 +0200 (Tue, 16 Feb 2016) $
#$Revision: 176465 $
#$URL: svn://www.crystallography.net/cod/cif/9/00/38/9003845.cif $
#------------------------------------------------------------------------------
#
# This file is available in the Crystallography Open Database (COD),
# http://www.crystallography.net/. The original data for this entry
# were provided the American Mineralogist Crystal Structure Database,
# http://rruff.geo.arizona.edu/AMS/amcsd.php
#
# The file may be used within the scientific community so long as
# proper attribution is given to the journal article from which the
# data were obtained.
#
data_9003845
loop_
_publ_author_name
'Domeneghetti, M. C.'
'Zema, M.'
'Tazzoli, V.'
_publ_section_title
;
 Kinetics of Fe2+-Mg order-disorder in P2_1/c pigeonite
 Locality: Parana, Brazil
 Sample: N.35, annealed at T = 700 C for t = 300 min
;
_journal_name_full               'American Mineralogist'
_journal_page_first              1816
_journal_page_last               1823
_journal_paper_doi               10.2138/am.2005.1773
_journal_volume                  90
_journal_year                    2005
_chemical_formula_sum
'Al0.016 Ca0.191 Fe0.85 Mg0.917 Mn0.029 Na0.003 O6 Si1.984 Ti0.01'
_chemical_name_mineral           Pigeonite
_space_group_IT_number           14
_symmetry_space_group_name_Hall  '-P 2ybc'
_symmetry_space_group_name_H-M   'P 1 21/c 1'
_cell_angle_alpha                90
_cell_angle_beta                 108.479
_cell_angle_gamma                90
_cell_length_a                   9.7120
_cell_length_b                   8.9434
_cell_length_c                   5.2492
_cell_volume                     432.428
_exptl_crystal_density_diffrn    3.559
_exptl_crystal_thermal_history   'annealed at T = 700 C for t = 300 min'
_cod_original_formula_sum
'Mg.917 Fe.85 Ca.191 Mn.029 Na.003 Ti.01 Si1.984 Al.016 O6'
_cod_database_code               9003845
loop_
_symmetry_equiv_pos_as_xyz
x,y,z
x,1/2-y,1/2+z
-x,1/2+y,1/2-z
-x,-y,-z
loop_
_atom_site_aniso_label
_atom_site_aniso_U_11
_atom_site_aniso_U_22
_atom_site_aniso_U_33
_atom_site_aniso_U_12
_atom_site_aniso_U_13
_atom_site_aniso_U_23
MgM2A 0.00965 0.01088 0.00662 0.00050 0.00055 0.00182
FeM2A 0.00965 0.01088 0.00662 0.00050 0.00055 0.00182
CaM2A 0.00965 0.01088 0.00662 0.00050 0.00055 0.00182
MnM2A 0.00965 0.01088 0.00662 0.00050 0.00055 0.00182
NaM2A 0.00965 0.01088 0.00662 0.00050 0.00055 0.00182
MgM1 0.00780 0.00671 0.00759 0.00012 0.00252 0.00044
Fe2+M1 0.00780 0.00671 0.00759 0.00012 0.00252 0.00044
Fe3+M1 0.00780 0.00671 0.00759 0.00012 0.00252 0.00044
TiM1 0.00780 0.00671 0.00759 0.00012 0.00252 0.00044
MnM1 0.00780 0.00671 0.00759 0.00012 0.00252 0.00044
SiA 0.00585 0.00636 0.00985 -0.00058 0.00346 -0.00068
SiB 0.00626 0.00626 0.00757 -0.00113 0.00283 -0.00108
AlB 0.00626 0.00626 0.00757 -0.00113 0.00283 -0.00108
O1A 0.00649 0.00943 0.00949 0.00050 0.00278 0.00010
O2A 0.01270 0.00840 0.01334 -0.00338 0.00655 -0.00153
O3A 0.00860 0.02228 0.02053 0.00067 0.00397 0.01335
O1B 0.00685 0.00980 0.00969 0.00052 0.00314 -0.00002
O2B 0.01427 0.01168 0.02133 -0.00592 0.01048 -0.00732
O3B 0.00735 0.02040 0.01342 0.00056 0.00328 0.00787
loop_
_atom_site_label
_atom_site_fract_x
_atom_site_fract_y
_atom_site_fract_z
_atom_site_occupancy
_atom_site_U_iso_or_equiv
MgM2A 0.25525 0.01674 0.22782 0.17640 ?
FeM2A 0.25525 0.01674 0.22782 0.60410 ?
CaM2A 0.25525 0.01674 0.22782 0.06480 ?
MnM2A 0.25525 0.01674 0.22782 0.02550 ?
NaM2A 0.25525 0.01674 0.22782 0.00300 ?
CaM2B 0.25425 0.04879 0.24933 0.12610 0.01253
MgM1 0.25040 0.65460 0.23176 0.74090 ?
Fe2+M1 0.25040 0.65460 0.23176 0.23070 ?
Fe3+M1 0.25040 0.65460 0.23176 0.01500 ?
TiM1 0.25040 0.65460 0.23176 0.01000 ?
MnM1 0.25040 0.65460 0.23176 0.00340 ?
SiA 0.04280 0.34056 0.27648 1.00000 ?
SiB 0.54934 0.83744 0.23861 0.98400 ?
AlB 0.54934 0.83744 0.23861 0.01600 ?
O1A 0.86764 0.33834 0.16899 1.00000 ?
O2A 0.12161 0.49944 0.33203 1.00000 ?
O3A 0.10420 0.26157 0.57731 1.00000 ?
O1B 0.37358 0.83674 0.13506 1.00000 ?
O2B 0.62885 0.98770 0.37246 1.00000 ?
O3B 0.60484 0.70914 0.48101 1.00000 ?
