#------------------------------------------------------------------------------
#$Date: 2016-02-16 14:49:47 +0200 (Tue, 16 Feb 2016) $
#$Revision: 176465 $
#$URL: svn://www.crystallography.net/cod/cif/9/00/33/9003337.cif $
#------------------------------------------------------------------------------
#
# This file is available in the Crystallography Open Database (COD),
# http://www.crystallography.net/. The original data for this entry
# were provided the American Mineralogist Crystal Structure Database,
# http://rruff.geo.arizona.edu/AMS/amcsd.php
#
# The file may be used within the scientific community so long as
# proper attribution is given to the journal article from which the
# data were obtained.
#
data_9003337
loop_
_publ_author_name
'Redhammer, G. J.'
'Tippelt, G.'
'Roth, G.'
'Amthauer, G.'
_publ_section_title
;
 Structural variations in the brownmillerite series Ca2(Fe2-xAlx)O5:
 Single-crystal X-ray diffraction at 25 deg C and high temperature
 X-ray powder diffraction (25 C <= T <= 1000 C)
 Sample: bht005_2
;
_journal_name_full               'American Mineralogist'
_journal_page_first              405
_journal_page_last               420
_journal_volume                  89
_journal_year                    2004
_chemical_formula_sum            'Al0.114 Ca2 Fe1.886 O5'
_chemical_name_mineral           Brownmillerite
_space_group_IT_number           62
_symmetry_space_group_name_Hall  '-P 2ac 2n'
_symmetry_space_group_name_H-M   'P n m a'
_cell_angle_alpha                90
_cell_angle_beta                 90
_cell_angle_gamma                90
_cell_length_a                   5.4217
_cell_length_b                   14.7432
_cell_length_c                   5.5960
_cell_volume                     447.306
_exptl_crystal_density_diffrn    3.988
_cod_original_formula_sum        'Ca2 (Fe1.886 Al.114) O5'
_cod_database_code               9003337
loop_
_symmetry_equiv_pos_as_xyz
x,y,z
x,1/2-y,z
-x,1/2+y,-z
1/2-x,1/2+y,1/2+z
1/2+x,1/2-y,1/2-z
1/2+x,y,1/2-z
1/2-x,-y,1/2+z
-x,-y,-z
loop_
_atom_site_label
_atom_site_fract_x
_atom_site_fract_y
_atom_site_fract_z
_atom_site_occupancy
_atom_site_U_iso_or_equiv
Ca 0.48141 0.10802 0.02331 1.00000 0.00650
FeM 0.00000 0.00000 0.00000 0.96600 0.00330
AlM 0.00000 0.00000 0.00000 0.03400 0.00330
FeT 0.94628 0.25000 0.93351 0.92000 0.00260
AlT 0.94628 0.25000 0.93351 0.08000 0.00260
O1 0.26220 0.98432 0.23750 1.00000 0.00620
O2 0.02360 0.14090 0.07230 1.00000 0.00820
O3 0.59920 0.25000 0.87360 1.00000 0.00630
