#------------------------------------------------------------------------------
#$Date: 2016-02-16 14:49:47 +0200 (Tue, 16 Feb 2016) $
#$Revision: 176465 $
#$URL: svn://www.crystallography.net/cod/cif/9/00/38/9003840.cif $
#------------------------------------------------------------------------------
#
# This file is available in the Crystallography Open Database (COD),
# http://www.crystallography.net/. The original data for this entry
# were provided the American Mineralogist Crystal Structure Database,
# http://rruff.geo.arizona.edu/AMS/amcsd.php
#
# The file may be used within the scientific community so long as
# proper attribution is given to the journal article from which the
# data were obtained.
#
data_9003840
loop_
_publ_author_name
'Domeneghetti, M. C.'
'Zema, M.'
'Tazzoli, V.'
_publ_section_title
;
 Kinetics of Fe2+-Mg order-disorder in P2_1/c pigeonite
 Locality: Parana, Brazil
 Sample: N.35, annealed at T = 700 C for t = 20 min
;
_journal_name_full               'American Mineralogist'
_journal_page_first              1816
_journal_page_last               1823
_journal_paper_doi               10.2138/am.2005.1773
_journal_volume                  90
_journal_year                    2005
_chemical_formula_sum
'Al0.016 Ca0.191 Fe0.848 Mg0.919 Mn0.029 Na0.003 O6 Si1.984 Ti0.01'
_chemical_name_mineral           Pigeonite
_space_group_IT_number           14
_symmetry_space_group_name_Hall  '-P 2ybc'
_symmetry_space_group_name_H-M   'P 1 21/c 1'
_cell_angle_alpha                90
_cell_angle_beta                 108.478
_cell_angle_gamma                90
_cell_length_a                   9.7057
_cell_length_b                   8.9396
_cell_length_c                   5.2453
_cell_volume                     431.646
_exptl_crystal_density_diffrn    3.565
_exptl_crystal_thermal_history   'annealed at T = 700 C for t = 20 min'
_cod_original_formula_sum
'Mg.919 Fe.848 Ca.191 Mn.029 Na.003 Ti.01 Si1.984 Al.016 O6'
_cod_database_code               9003840
loop_
_symmetry_equiv_pos_as_xyz
x,y,z
x,1/2-y,1/2+z
-x,1/2+y,1/2-z
-x,-y,-z
loop_
_atom_site_aniso_label
_atom_site_aniso_U_11
_atom_site_aniso_U_22
_atom_site_aniso_U_33
_atom_site_aniso_U_12
_atom_site_aniso_U_13
_atom_site_aniso_U_23
MgM2A 0.00963 0.01041 0.00636 0.00010 0.00035 0.00172
FeM2A 0.00963 0.01041 0.00636 0.00010 0.00035 0.00172
CaM2A 0.00963 0.01041 0.00636 0.00010 0.00035 0.00172
MnM2A 0.00963 0.01041 0.00636 0.00010 0.00035 0.00172
NaM2A 0.00963 0.01041 0.00636 0.00010 0.00035 0.00172
MgM1 0.00786 0.00706 0.00747 0.00019 0.00239 0.00040
Fe2+M1 0.00786 0.00706 0.00747 0.00019 0.00239 0.00040
Fe3+M1 0.00786 0.00706 0.00747 0.00019 0.00239 0.00040
TiM1 0.00786 0.00706 0.00747 0.00019 0.00239 0.00040
MnM1 0.00786 0.00706 0.00747 0.00019 0.00239 0.00040
SiA 0.00592 0.00646 0.01012 -0.00055 0.00334 -0.00067
SiB 0.00623 0.00644 0.00764 -0.00108 0.00268 -0.00097
AlB 0.00623 0.00644 0.00764 -0.00108 0.00268 -0.00097
O1A 0.00651 0.00919 0.00968 0.00030 0.00270 0.00006
O2A 0.01244 0.00880 0.01318 -0.00365 0.00607 -0.00131
O3A 0.00843 0.02323 0.02094 0.00040 0.00414 0.01386
O1B 0.00682 0.00963 0.00998 0.00019 0.00300 -0.00005
O2B 0.01446 0.01163 0.02170 -0.00621 0.01043 -0.00752
O3B 0.00742 0.01982 0.01356 0.00033 0.00338 0.00799
loop_
_atom_site_label
_atom_site_fract_x
_atom_site_fract_y
_atom_site_fract_z
_atom_site_occupancy
_atom_site_U_iso_or_equiv
MgM2A 0.25519 0.01638 0.22777 0.15390 ?
FeM2A 0.25519 0.01638 0.22777 0.62590 ?
CaM2A 0.25519 0.01638 0.22777 0.04170 ?
MnM2A 0.25519 0.01638 0.22777 0.02590 ?
NaM2A 0.25519 0.01638 0.22777 0.00300 ?
CaM2B 0.25451 0.04677 0.24879 0.14960 0.01280
MgM1 0.25043 0.65462 0.23204 0.76500 ?
Fe2+M1 0.25043 0.65462 0.23204 0.20720 ?
Fe3+M1 0.25043 0.65462 0.23204 0.01480 ?
TiM1 0.25043 0.65462 0.23204 0.01010 ?
MnM1 0.25043 0.65462 0.23204 0.00300 ?
SiA 0.04274 0.34055 0.27600 1.00000 ?
SiB 0.54932 0.83743 0.23866 0.98400 ?
AlB 0.54932 0.83743 0.23866 0.01600 ?
O1A 0.86757 0.33816 0.16834 1.00000 ?
O2A 0.12153 0.49943 0.33209 1.00000 ?
O3A 0.10408 0.26105 0.57624 1.00000 ?
O1B 0.37360 0.83657 0.13487 1.00000 ?
O2B 0.62867 0.98778 0.37198 1.00000 ?
O3B 0.60487 0.70935 0.48156 1.00000 ?
