#------------------------------------------------------------------------------
#$Date: 2016-02-16 14:49:47 +0200 (Tue, 16 Feb 2016) $
#$Revision: 176465 $
#$URL: svn://www.crystallography.net/cod/cif/9/00/37/9003763.cif $
#------------------------------------------------------------------------------
#
# This file is available in the Crystallography Open Database (COD),
# http://www.crystallography.net/. The original data for this entry
# were provided the American Mineralogist Crystal Structure Database,
# http://rruff.geo.arizona.edu/AMS/amcsd.php
#
# The file may be used within the scientific community so long as
# proper attribution is given to the journal article from which the
# data were obtained.
#
data_9003763
loop_
_publ_author_name
'Ellemann-Olesen R'
'Malcherek, T.'
_publ_section_title
;A high-temperature diffraction study of the solid solution CaTiOSiO4 -
 CaTiOGeO4 Note: Titanite structure Sample: #95, CaTiO(Ge.90Si.10)O4
;
_journal_name_full               'American Mineralogist'
_journal_page_first              1325
_journal_page_last               1334
_journal_paper_doi               10.2138/am.2005.1729
_journal_volume                  90
_journal_year                    2005
_chemical_formula_structural     'CaTiOSiO4 - CaTiOGeO4 join'
_chemical_formula_sum            'Ca Ge0.901 O5 Si0.098 Ti'
_space_group_IT_number           14
_symmetry_space_group_name_Hall  '-P 2yab'
_symmetry_space_group_name_H-M   'P 1 21/a 1'
_cell_angle_alpha                90
_cell_angle_beta                 113.833
_cell_angle_gamma                90
_cell_length_a                   7.14287
_cell_length_b                   8.87820
_cell_length_c                   6.64268
_cell_volume                     385.330
_exptl_crystal_density_diffrn    4.070
_cod_original_formula_sum        'Ca Ti Ge.901 Si.098 O5'
_cod_database_code               9003763
loop_
_symmetry_equiv_pos_as_xyz
x,y,z
1/2+x,1/2-y,z
1/2-x,1/2+y,-z
-x,-y,-z
loop_
_atom_site_label
_atom_site_fract_x
_atom_site_fract_y
_atom_site_fract_z
_atom_site_occupancy
_atom_site_U_iso_or_equiv
Ca 0.23680 0.42010 0.24190 1.00000 0.01300
Ti 0.50350 0.23780 0.74800 1.00000 0.01400
Ge 0.74500 0.43240 0.25600 0.90100 0.01500
Si 0.74500 0.43240 0.25600 0.09800 0.01500
O1 0.73420 0.32030 0.74730 1.00000 0.00700
O2A 0.93000 0.30030 0.45580 1.00000 0.00700
O2B 0.09550 0.19230 0.08380 1.00000 0.00700
O3A 0.40580 0.45390 0.64020 1.00000 0.00700
O3B 0.61790 0.03570 0.86700 1.00000 0.00700
