#------------------------------------------------------------------------------
#$Date: 2016-02-16 14:49:47 +0200 (Tue, 16 Feb 2016) $
#$Revision: 176465 $
#$URL: svn://www.crystallography.net/cod/cif/9/00/38/9003858.cif $
#------------------------------------------------------------------------------
#
# This file is available in the Crystallography Open Database (COD),
# http://www.crystallography.net/. The original data for this entry
# were provided the American Mineralogist Crystal Structure Database,
# http://rruff.geo.arizona.edu/AMS/amcsd.php
#
# The file may be used within the scientific community so long as
# proper attribution is given to the journal article from which the
# data were obtained.
#
data_9003858
loop_
_publ_author_name
'Domeneghetti, M. C.'
'Zema, M.'
'Tazzoli, V.'
_publ_section_title
;
 Kinetics of Fe2+-Mg order-disorder in P2_1/c pigeonite
 Locality: Parana, Brazil
 Sample: N.13, annealed at T = 650 C for t = 360 min
;
_journal_name_full               'American Mineralogist'
_journal_page_first              1816
_journal_page_last               1823
_journal_paper_doi               10.2138/am.2005.1773
_journal_volume                  90
_journal_year                    2005
_chemical_formula_sum
'Al0.016 Ca0.191 Fe0.849 Mg0.918 Mn0.029 Na0.003 O6 Si1.984 Ti0.01'
_chemical_name_mineral           Pigeonite
_space_group_IT_number           14
_symmetry_space_group_name_Hall  '-P 2ybc'
_symmetry_space_group_name_H-M   'P 1 21/c 1'
_cell_angle_alpha                90
_cell_angle_beta                 108.485
_cell_angle_gamma                90
_cell_length_a                   9.7074
_cell_length_b                   8.9415
_cell_length_c                   5.2468
_cell_volume                     431.919
_exptl_crystal_density_diffrn    3.563
_exptl_crystal_thermal_history   'annealed at T = 650 C for t = 360 min'
_cod_original_formula_sum
'Mg.918 Fe.849 Ca.191 Mn.029 Na.003 Ti.01 Si1.984 Al.016 O6'
_cod_database_code               9003858
loop_
_symmetry_equiv_pos_as_xyz
x,y,z
x,1/2-y,1/2+z
-x,1/2+y,1/2-z
-x,-y,-z
loop_
_atom_site_aniso_label
_atom_site_aniso_U_11
_atom_site_aniso_U_22
_atom_site_aniso_U_33
_atom_site_aniso_U_12
_atom_site_aniso_U_13
_atom_site_aniso_U_23
MgM2A 0.00980 0.01110 0.00689 0.00039 0.00068 0.00164
FeM2A 0.00980 0.01110 0.00689 0.00039 0.00068 0.00164
CaM2A 0.00980 0.01110 0.00689 0.00039 0.00068 0.00164
MnM2A 0.00980 0.01110 0.00689 0.00039 0.00068 0.00164
NaM2A 0.00980 0.01110 0.00689 0.00039 0.00068 0.00164
MgM1 0.00792 0.00728 0.00788 0.00018 0.00262 0.00038
Fe2+M1 0.00792 0.00728 0.00788 0.00018 0.00262 0.00038
Fe3+M1 0.00792 0.00728 0.00788 0.00018 0.00262 0.00038
TiM1 0.00792 0.00728 0.00788 0.00018 0.00262 0.00038
MnM1 0.00792 0.00728 0.00788 0.00018 0.00262 0.00038
SiA 0.00593 0.00663 0.00999 -0.00047 0.00334 -0.00061
SiB 0.00632 0.00663 0.00795 -0.00097 0.00281 -0.00087
AlB 0.00632 0.00663 0.00795 -0.00097 0.00281 -0.00087
O1A 0.00668 0.00950 0.00979 0.00023 0.00270 -0.00018
O2A 0.01295 0.00863 0.01353 -0.00305 0.00632 -0.00152
O3A 0.00847 0.02284 0.02114 0.00075 0.00430 0.01386
O1B 0.00712 0.00978 0.01013 0.00040 0.00306 -0.00009
O2B 0.01467 0.01189 0.02079 -0.00577 0.01009 -0.00711
O3B 0.00799 0.02007 0.01365 0.00106 0.00376 0.00746
loop_
_atom_site_label
_atom_site_fract_x
_atom_site_fract_y
_atom_site_fract_z
_atom_site_occupancy
_atom_site_U_iso_or_equiv
MgM2A 0.25527 0.01677 0.22782 0.15700 ?
FeM2A 0.25527 0.01677 0.22782 0.62320 ?
CaM2A 0.25527 0.01677 0.22782 0.06660 ?
MnM2A 0.25527 0.01677 0.22782 0.02580 ?
NaM2A 0.25527 0.01677 0.22782 0.00300 ?
CaM2B 0.25480 0.04911 0.24940 0.12440 0.01336
MgM1 0.25046 0.65462 0.23163 0.76110 ?
Fe2+M1 0.25046 0.65462 0.23163 0.21100 ?
Fe3+M1 0.25046 0.65462 0.23163 0.01480 ?
TiM1 0.25046 0.65462 0.23163 0.01010 ?
MnM1 0.25046 0.65462 0.23163 0.00300 ?
SiA 0.04271 0.34058 0.27660 1.00000 ?
SiB 0.54943 0.83743 0.23850 0.98400 ?
AlB 0.54943 0.83743 0.23850 0.01600 ?
O1A 0.86757 0.33814 0.16886 1.00000 ?
O2A 0.12171 0.49926 0.33201 1.00000 ?
O3A 0.10412 0.26149 0.57734 1.00000 ?
O1B 0.37358 0.83668 0.13463 1.00000 ?
O2B 0.62896 0.98750 0.37279 1.00000 ?
O3B 0.60479 0.70918 0.48086 1.00000 ?
