#------------------------------------------------------------------------------
#$Date: 2016-02-16 14:49:47 +0200 (Tue, 16 Feb 2016) $
#$Revision: 176465 $
#$URL: svn://www.crystallography.net/cod/cif/9/00/35/9003579.cif $
#------------------------------------------------------------------------------
#
# This file is available in the Crystallography Open Database (COD),
# http://www.crystallography.net/. The original data for this entry
# were provided the American Mineralogist Crystal Structure Database,
# http://rruff.geo.arizona.edu/AMS/amcsd.php
#
# The file may be used within the scientific community so long as
# proper attribution is given to the journal article from which the
# data were obtained.
#
data_9003579
loop_
_publ_author_name
'Stimpfl, M.'
_publ_section_title
;The Mn, Mg-intracrystalline exchange reaction in donpeacorite
 (Mn0.54Ca0.03Mg1.43Si2O6) and its relation to the fractionation behavior of
 Mn in Fe, Mg-orthopyroxene Sample: quenched from 806 deg C ORD
;
_journal_name_full               'American Mineralogist'
_journal_page_first              155
_journal_page_last               161
_journal_paper_doi               10.2138/am.2005.1577
_journal_volume                  90
_journal_year                    2005
_chemical_formula_sum
'Al0.003 Ca0.024 Mg1.433 Mn0.541 O6 Si1.997 Ti0.002'
_chemical_name_mineral           Donpeacorite
_space_group_IT_number           61
_symmetry_space_group_name_Hall  '-P 2ac 2ab'
_symmetry_space_group_name_H-M   'P b c a'
_cell_angle_alpha                90
_cell_angle_beta                 90
_cell_angle_gamma                90
_cell_length_a                   18.3559
_cell_length_b                   8.8741
_cell_length_c                   5.2256
_cell_volume                     851.209
_exptl_crystal_density_diffrn    3.399
_exptl_crystal_thermal_history   'quenched from 806 deg C'
_cod_original_formula_sum
'Mg1.433 Mn.541 Ti.002 Ca.024 Si1.997 Al.003 O6'
_cod_database_code               9003579
loop_
_symmetry_equiv_pos_as_xyz
x,y,z
x,1/2-y,1/2+z
-x,1/2+y,1/2-z
1/2-x,1/2+y,z
1/2+x,1/2-y,-z
1/2+x,y,1/2-z
1/2-x,-y,1/2+z
-x,-y,-z
loop_
_atom_site_label
_atom_site_fract_x
_atom_site_fract_y
_atom_site_fract_z
_atom_site_occupancy
_atom_site_U_iso_or_equiv
Mg1 0.37537 0.65388 0.87211 0.94580 0.00631
Mn1 0.37537 0.65388 0.87211 0.05270 0.00631
Ti1 0.37537 0.65388 0.87211 0.00150 0.00631
Mg2 0.37748 0.48038 0.36831 0.48670 0.00911
Mn2 0.37748 0.48038 0.36831 0.48880 0.00911
Ca2 0.37748 0.48038 0.36831 0.02450 0.00911
SiA 0.27112 0.34111 0.04829 1.00000 0.00493
SiB 0.47480 0.33782 0.79509 0.99690 0.00497
AlB 0.47480 0.33782 0.79509 0.00310 0.00497
O1A 0.18333 0.33863 0.04025 1.00000 0.00566
O2A 0.30981 0.50159 0.04607 1.00000 0.00771
O3A 0.30224 0.22911 0.82245 1.00000 0.00829
O1B 0.56299 0.33892 0.79688 1.00000 0.00652
O2B 0.43501 0.48701 0.70056 1.00000 0.00942
O3B 0.44774 0.20373 0.59118 1.00000 0.00871
