#------------------------------------------------------------------------------
#$Date: 2016-02-16 14:49:47 +0200 (Tue, 16 Feb 2016) $
#$Revision: 176465 $
#$URL: svn://www.crystallography.net/cod/cif/9/00/30/9003063.cif $
#------------------------------------------------------------------------------
#
# This file is available in the Crystallography Open Database (COD),
# http://www.crystallography.net/. The original data for this entry
# were provided the American Mineralogist Crystal Structure Database,
# http://rruff.geo.arizona.edu/AMS/amcsd.php
#
# The file may be used within the scientific community so long as
# proper attribution is given to the journal article from which the
# data were obtained.
#
data_9003063
loop_
_publ_author_name
'Camara, F.'
'Carpenter, M. A.'
'Domeneghetti, M. C.'
'Tazzoli, V.'
_publ_section_title
;
 Coupling between non-convergent ordering and transition temperature
 in the C2/c - P2_1/c phase transition in pigeonite
 Sample: BTS-308 n.17-6, after the final in situ run to 500 deg C
;
_journal_name_full               'American Mineralogist'
_journal_page_first              1115
_journal_page_last               1128
_journal_volume                  88
_journal_year                    2003
_chemical_formula_sum            'Ca0.18 Fe0.834 Mg0.942 Mn0.027 O6 Si2'
_chemical_name_mineral           Pigeonite
_space_group_IT_number           14
_symmetry_space_group_name_Hall  '-P 2ybc'
_symmetry_space_group_name_H-M   'P 1 21/c 1'
_cell_angle_alpha                90
_cell_angle_beta                 108.50
_cell_angle_gamma                90
_cell_length_a                   9.718
_cell_length_b                   8.951
_cell_length_c                   5.250
_cell_volume                     433.076
_exptl_crystal_density_diffrn    3.533
_cod_original_formula_sum        'O6 Si2 Mg.942 Fe.834 Mn.027 Ca.18'
_cod_database_code               9003063
loop_
_symmetry_equiv_pos_as_xyz
x,y,z
x,1/2-y,1/2+z
-x,1/2+y,1/2-z
-x,-y,-z
loop_
_atom_site_aniso_label
_atom_site_aniso_U_11
_atom_site_aniso_U_22
_atom_site_aniso_U_33
_atom_site_aniso_U_12
_atom_site_aniso_U_13
_atom_site_aniso_U_23
O1A 0.00600 0.00900 0.00700 -0.00100 0.00200 0.00000
O1b 0.00600 0.00700 0.00700 0.00200 0.00200 0.00100
O2A 0.01300 0.00600 0.01100 -0.00500 0.00600 0.00100
O2B 0.01300 0.01000 0.02000 -0.00600 0.00800 -0.00400
O3A 0.00600 0.01400 0.01400 0.00000 0.00100 -0.00800
O3B 0.00600 0.01700 0.01000 0.00100 0.00200 0.00500
SiA 0.00400 0.00500 0.00800 -0.00100 0.00200 -0.00200
SiB 0.00500 0.00400 0.00700 0.00000 0.00200 0.00000
MgM1 0.00600 0.00500 0.00600 -0.00100 0.00100 -0.00100
FeM1 0.00600 0.00500 0.00600 -0.00100 0.00100 -0.00100
MnM1 0.00600 0.00500 0.00600 -0.00100 0.00100 -0.00100
CaM2 0.00900 0.01500 0.00700 0.00200 -0.00100 0.00200
MgM2 0.00900 0.01500 0.00700 0.00200 -0.00100 0.00200
FeM2 0.00900 0.01500 0.00700 0.00200 -0.00100 0.00200
MnM2 0.00900 0.01500 0.00700 0.00200 -0.00100 0.00200
loop_
_atom_site_label
_atom_site_fract_x
_atom_site_fract_y
_atom_site_fract_z
_atom_site_occupancy
_atom_site_U_iso_or_equiv
O1A -0.13260 0.33840 0.17040 1.00000 0.00700
O1b 0.37340 0.83740 0.13390 1.00000 0.00700
O2A 0.12200 0.49970 0.33150 1.00000 0.00900
O2B 0.62810 0.98680 0.37170 1.00000 0.01400
O3A 0.10410 0.23700 0.07980 1.00000 0.01200
O3B 0.60430 0.70980 0.48000 1.00000 0.01100
SiA 0.04240 0.34070 0.27800 1.00000 0.00600
SiB 0.54980 0.83700 0.23770 1.00000 0.00500
MgM1 0.25050 0.65460 0.23030 0.70100 0.00600
FeM1 0.25050 0.65460 0.23030 0.27360 0.00600
MnM1 0.25050 0.65460 0.23030 0.00860 0.00600
CaM2 0.25540 0.01940 0.22810 0.18030 0.01100
MgM2 0.25540 0.01940 0.22810 0.24060 0.01100
FeM2 0.25540 0.01940 0.22810 0.56070 0.01100
MnM2 0.25540 0.01940 0.22810 0.01840 0.01100
