#------------------------------------------------------------------------------
#$Date: 2016-02-16 14:49:47 +0200 (Tue, 16 Feb 2016) $
#$Revision: 176465 $
#$URL: svn://www.crystallography.net/cod/cif/9/00/38/9003854.cif $
#------------------------------------------------------------------------------
#
# This file is available in the Crystallography Open Database (COD),
# http://www.crystallography.net/. The original data for this entry
# were provided the American Mineralogist Crystal Structure Database,
# http://rruff.geo.arizona.edu/AMS/amcsd.php
#
# The file may be used within the scientific community so long as
# proper attribution is given to the journal article from which the
# data were obtained.
#
data_9003854
loop_
_publ_author_name
'Domeneghetti, M. C.'
'Zema, M.'
'Tazzoli, V.'
_publ_section_title
;
 Kinetics of Fe2+-Mg order-disorder in P2_1/c pigeonite
 Locality: Parana, Brazil
 Sample: N.13, untreated
;
_journal_name_full               'American Mineralogist'
_journal_page_first              1816
_journal_page_last               1823
_journal_paper_doi               10.2138/am.2005.1773
_journal_volume                  90
_journal_year                    2005
_chemical_formula_sum
'Al0.016 Ca0.191 Fe0.848 Mg0.919 Mn0.029 Na0.003 O6 Si1.984 Ti0.01'
_chemical_name_mineral           Pigeonite
_space_group_IT_number           14
_symmetry_space_group_name_Hall  '-P 2ybc'
_symmetry_space_group_name_H-M   'P 1 21/c 1'
_cell_angle_alpha                90
_cell_angle_beta                 108.504
_cell_angle_gamma                90
_cell_length_a                   9.7060
_cell_length_b                   8.9400
_cell_length_c                   5.2460
_cell_volume                     431.671
_exptl_crystal_density_diffrn    3.564
_cod_original_formula_sum
'Mg.919 Fe.848 Ca.191 Mn.029 Na.003 Ti.01 Si1.984 Al.016 O6'
_cod_database_code               9003854
loop_
_symmetry_equiv_pos_as_xyz
x,y,z
x,1/2-y,1/2+z
-x,1/2+y,1/2-z
-x,-y,-z
loop_
_atom_site_aniso_label
_atom_site_aniso_U_11
_atom_site_aniso_U_22
_atom_site_aniso_U_33
_atom_site_aniso_U_12
_atom_site_aniso_U_13
_atom_site_aniso_U_23
MgM2A 0.00993 0.01061 0.00666 0.00029 0.00076 0.00198
FeM2A 0.00993 0.01061 0.00666 0.00029 0.00076 0.00198
CaM2A 0.00993 0.01061 0.00666 0.00029 0.00076 0.00198
MnM2A 0.00993 0.01061 0.00666 0.00029 0.00076 0.00198
NaM2A 0.00993 0.01061 0.00666 0.00029 0.00076 0.00198
MgM1 0.00810 0.00695 0.00767 0.00019 0.00259 0.00041
Fe2+M1 0.00810 0.00695 0.00767 0.00019 0.00259 0.00041
Fe3+M1 0.00810 0.00695 0.00767 0.00019 0.00259 0.00041
TiM1 0.00810 0.00695 0.00767 0.00019 0.00259 0.00041
MnM1 0.00810 0.00695 0.00767 0.00019 0.00259 0.00041
SiA 0.00611 0.00642 0.00976 -0.00050 0.00343 -0.00062
SiB 0.00640 0.00635 0.00769 -0.00101 0.00282 -0.00086
AlB 0.00640 0.00635 0.00769 -0.00101 0.00282 -0.00086
O1A 0.00662 0.00922 0.00947 0.00005 0.00261 -0.00011
O2A 0.01264 0.00862 0.01310 -0.00342 0.00637 -0.00158
O3A 0.00864 0.02168 0.02069 0.00055 0.00428 0.01337
O1B 0.00708 0.00952 0.00985 0.00032 0.00296 -0.00007
O2B 0.01454 0.01185 0.02002 -0.00592 0.01018 -0.00713
O3B 0.00793 0.01919 0.01342 0.00050 0.00308 0.00788
loop_
_atom_site_label
_atom_site_fract_x
_atom_site_fract_y
_atom_site_fract_z
_atom_site_occupancy
_atom_site_U_iso_or_equiv
MgM2A 0.25537 0.01660 0.22759 0.14200 ?
FeM2A 0.25537 0.01660 0.22759 0.63790 ?
CaM2A 0.25537 0.01660 0.22759 0.05420 ?
MnM2A 0.25537 0.01660 0.22759 0.02600 ?
NaM2A 0.25537 0.01660 0.22759 0.00300 ?
CaM2B 0.25345 0.04631 0.24926 0.13690 0.01323
MgM1 0.25041 0.65466 0.23172 0.77720 ?
Fe2+M1 0.25041 0.65466 0.23172 0.19520 ?
Fe3+M1 0.25041 0.65466 0.23172 0.01480 ?
TiM1 0.25041 0.65466 0.23172 0.01010 ?
MnM1 0.25041 0.65466 0.23172 0.00270 ?
SiA 0.04274 0.34054 0.27646 1.00000 ?
SiB 0.54943 0.83738 0.23856 0.98400 ?
AlB 0.54943 0.83738 0.23856 0.01600 ?
O1A 0.86751 0.33811 0.16848 1.00000 ?
O2A 0.12160 0.49963 0.33192 1.00000 ?
O3A 0.10418 0.26121 0.57702 1.00000 ?
O1B 0.37360 0.83651 0.13449 1.00000 ?
O2B 0.62880 0.98773 0.37227 1.00000 ?
O3B 0.60495 0.70925 0.48118 1.00000 ?
