#------------------------------------------------------------------------------
#$Date: 2016-02-16 14:49:47 +0200 (Tue, 16 Feb 2016) $
#$Revision: 176465 $
#$URL: svn://www.crystallography.net/cod/cif/9/00/38/9003849.cif $
#------------------------------------------------------------------------------
#
# This file is available in the Crystallography Open Database (COD),
# http://www.crystallography.net/. The original data for this entry
# were provided the American Mineralogist Crystal Structure Database,
# http://rruff.geo.arizona.edu/AMS/amcsd.php
#
# The file may be used within the scientific community so long as
# proper attribution is given to the journal article from which the
# data were obtained.
#
data_9003849
loop_
_publ_author_name
'Domeneghetti, M. C.'
'Zema, M.'
'Tazzoli, V.'
_publ_section_title
;
 Kinetics of Fe2+-Mg order-disorder in P2_1/c pigeonite
 Locality: Parana, Brazil
 Sample: N.35, annealed at T = 800 C for t = 3.5 min
;
_journal_name_full               'American Mineralogist'
_journal_page_first              1816
_journal_page_last               1823
_journal_paper_doi               10.2138/am.2005.1773
_journal_volume                  90
_journal_year                    2005
_chemical_formula_sum
'Al0.016 Ca0.191 Fe0.851 Mg0.916 Mn0.029 Na0.003 O6 Si1.984 Ti0.01'
_chemical_name_mineral           Pigeonite
_space_group_IT_number           14
_symmetry_space_group_name_Hall  '-P 2ybc'
_symmetry_space_group_name_H-M   'P 1 21/c 1'
_cell_angle_alpha                90
_cell_angle_beta                 108.471
_cell_angle_gamma                90
_cell_length_a                   9.7088
_cell_length_b                   8.9429
_cell_length_c                   5.2473
_cell_volume                     432.126
_exptl_crystal_density_diffrn    3.562
_exptl_crystal_thermal_history   'annealed at T = 800 C for t = 3.5 min'
_cod_original_formula_sum
'Mg.916 Fe.851 Ca.191 Mn.029 Na.003 Ti.01 Si1.984 Al.016 O6'
_cod_database_code               9003849
loop_
_symmetry_equiv_pos_as_xyz
x,y,z
x,1/2-y,1/2+z
-x,1/2+y,1/2-z
-x,-y,-z
loop_
_atom_site_aniso_label
_atom_site_aniso_U_11
_atom_site_aniso_U_22
_atom_site_aniso_U_33
_atom_site_aniso_U_12
_atom_site_aniso_U_13
_atom_site_aniso_U_23
MgM2A 0.00999 0.01186 0.00682 0.00053 0.00070 0.00182
FeM2A 0.00999 0.01186 0.00682 0.00053 0.00070 0.00182
CaM2A 0.00999 0.01186 0.00682 0.00053 0.00070 0.00182
MnM2A 0.00999 0.01186 0.00682 0.00053 0.00070 0.00182
NaM2A 0.00999 0.01186 0.00682 0.00053 0.00070 0.00182
MgM1 0.00783 0.00705 0.00755 0.00014 0.00252 0.00042
Fe2+M1 0.00783 0.00705 0.00755 0.00014 0.00252 0.00042
Fe3+M1 0.00783 0.00705 0.00755 0.00014 0.00252 0.00042
TiM1 0.00783 0.00705 0.00755 0.00014 0.00252 0.00042
MnM1 0.00783 0.00705 0.00755 0.00014 0.00252 0.00042
SiA 0.00598 0.00645 0.00987 -0.00056 0.00344 -0.00060
SiB 0.00627 0.00638 0.00758 -0.00102 0.00281 -0.00094
AlB 0.00627 0.00638 0.00758 -0.00102 0.00281 -0.00094
O1A 0.00658 0.00956 0.00963 0.00035 0.00282 -0.00028
O2A 0.01249 0.00876 0.01324 -0.00354 0.00612 -0.00106
O3A 0.00830 0.02299 0.02103 0.00073 0.00428 0.01424
O1B 0.00684 0.00978 0.01002 0.00044 0.00325 -0.00015
O2B 0.01459 0.01210 0.02094 -0.00615 0.01011 -0.00753
O3B 0.00758 0.02062 0.01280 0.00066 0.00337 0.00800
loop_
_atom_site_label
_atom_site_fract_x
_atom_site_fract_y
_atom_site_fract_z
_atom_site_occupancy
_atom_site_U_iso_or_equiv
MgM2A 0.25528 0.01704 0.22791 0.18330 ?
FeM2A 0.25528 0.01704 0.22791 0.59720 ?
CaM2A 0.25528 0.01704 0.22791 0.08630 ?
MnM2A 0.25528 0.01704 0.22791 0.02550 ?
NaM2A 0.25528 0.01704 0.22791 0.00290 ?
CaM2B 0.25427 0.05062 0.25220 0.10470 0.01157
MgM1 0.25041 0.65459 0.23163 0.73300 ?
Fe2+M1 0.25041 0.65459 0.23163 0.23850 ?
Fe3+M1 0.25041 0.65459 0.23163 0.01500 ?
TiM1 0.25041 0.65459 0.23163 0.01000 ?
MnM1 0.25041 0.65459 0.23163 0.00350 ?
SiA 0.04277 0.34053 0.27658 1.00000 ?
SiB 0.54941 0.83744 0.23862 0.98400 ?
AlB 0.54941 0.83744 0.23862 0.01600 ?
O1A 0.86763 0.33833 0.16918 1.00000 ?
O2A 0.12164 0.49944 0.33190 1.00000 ?
O3A 0.10419 0.26179 0.57754 1.00000 ?
O1B 0.37370 0.83679 0.13525 1.00000 ?
O2B 0.62889 0.98756 0.37262 1.00000 ?
O3B 0.60486 0.70902 0.48098 1.00000 ?
