#------------------------------------------------------------------------------
#$Date: 2016-02-16 14:49:47 +0200 (Tue, 16 Feb 2016) $
#$Revision: 176465 $
#$URL: svn://www.crystallography.net/cod/cif/9/00/34/9003406.cif $
#------------------------------------------------------------------------------
#
# This file is available in the Crystallography Open Database (COD),
# http://www.crystallography.net/. The original data for this entry
# were provided the American Mineralogist Crystal Structure Database,
# http://rruff.geo.arizona.edu/AMS/amcsd.php
#
# The file may be used within the scientific community so long as
# proper attribution is given to the journal article from which the
# data were obtained.
#
data_9003406
loop_
_publ_author_name
'Thompson, R. M.'
'Downs, R. T.'
_publ_section_title
;Model pyroxenes II: Structural variation as a function of tetrahedral
 rotation model jadeite after Clark et al. (1969) with O3-O3-O3 angle = 174.7
 and model oxygen radius = 1.273
;
_journal_name_full               'American Mineralogist'
_journal_page_first              614
_journal_page_last               628
_journal_volume                  89
_journal_year                    2004
_chemical_formula_sum            'Al Na O6 Si2'
_chemical_name_mineral           Pyroxene-ideal
_space_group_IT_number           15
_symmetry_space_group_name_Hall  '-C 2yc'
_symmetry_space_group_name_H-M   'C 1 2/c 1'
_cell_angle_alpha                90
_cell_angle_beta                 110.0
_cell_angle_gamma                90
_cell_length_a                   9.527
_cell_length_b                   8.810
_cell_length_c                   5.087
_cell_volume                     401.217
_exptl_crystal_density_diffrn    3.346
_cod_original_formula_sum        'Al Na Si2 O6'
_cod_database_code               9003406
loop_
_symmetry_equiv_pos_as_xyz
x,y,z
1/2+x,1/2+y,z
x,-y,1/2+z
1/2+x,1/2-y,1/2+z
-x,y,1/2-z
1/2-x,1/2+y,1/2-z
-x,-y,-z
1/2-x,1/2-y,-z
loop_
_atom_site_label
_atom_site_fract_x
_atom_site_fract_y
_atom_site_fract_z
Al 0.00000 0.91667 0.25000
Na 0.00000 0.25000 0.25000
Si 0.30800 0.08333 0.28040
O1 0.13390 0.08333 0.16900
O2 0.36610 0.25000 0.33100
O3 0.36610 0.00670 0.06080
