#------------------------------------------------------------------------------
#$Date: 2016-02-16 14:49:47 +0200 (Tue, 16 Feb 2016) $
#$Revision: 176465 $
#$URL: svn://www.crystallography.net/cod/cif/9/00/38/9003860.cif $
#------------------------------------------------------------------------------
#
# This file is available in the Crystallography Open Database (COD),
# http://www.crystallography.net/. The original data for this entry
# were provided the American Mineralogist Crystal Structure Database,
# http://rruff.geo.arizona.edu/AMS/amcsd.php
#
# The file may be used within the scientific community so long as
# proper attribution is given to the journal article from which the
# data were obtained.
#
data_9003860
loop_
_publ_author_name
'Domeneghetti, M. C.'
'Zema, M.'
'Tazzoli, V.'
_publ_section_title
;
 Kinetics of Fe2+-Mg order-disorder in P2_1/c pigeonite
 Locality: Parana, Brazil
 Sample: N.13, annealed at T = 650 C for t = 1680 min
;
_journal_name_full               'American Mineralogist'
_journal_page_first              1816
_journal_page_last               1823
_journal_paper_doi               10.2138/am.2005.1773
_journal_volume                  90
_journal_year                    2005
_chemical_formula_sum
'Al0.016 Ca0.191 Fe0.85 Mg0.917 Mn0.029 Na0.003 O6 Si1.984 Ti0.01'
_chemical_name_mineral           Pigeonite
_space_group_IT_number           14
_symmetry_space_group_name_Hall  '-P 2ybc'
_symmetry_space_group_name_H-M   'P 1 21/c 1'
_cell_angle_alpha                90
_cell_angle_beta                 108.485
_cell_angle_gamma                90
_cell_length_a                   9.7050
_cell_length_b                   8.9419
_cell_length_c                   5.2454
_cell_volume                     431.716
_exptl_crystal_density_diffrn    3.565
_exptl_crystal_thermal_history   'annealed at T = 650 C for t = 1680 min'
_cod_original_formula_sum
'Mg.917 Fe.85 Ca.191 Mn.029 Na.003 Ti.01 Si1.984 Al.016 O6'
_cod_database_code               9003860
loop_
_symmetry_equiv_pos_as_xyz
x,y,z
x,1/2-y,1/2+z
-x,1/2+y,1/2-z
-x,-y,-z
loop_
_atom_site_aniso_label
_atom_site_aniso_U_11
_atom_site_aniso_U_22
_atom_site_aniso_U_33
_atom_site_aniso_U_12
_atom_site_aniso_U_13
_atom_site_aniso_U_23
MgM2A 0.00989 0.01181 0.00720 0.00039 0.00067 0.00165
FeM2A 0.00989 0.01181 0.00720 0.00039 0.00067 0.00165
CaM2A 0.00989 0.01181 0.00720 0.00039 0.00067 0.00165
MnM2A 0.00989 0.01181 0.00720 0.00039 0.00067 0.00165
NaM2A 0.00989 0.01181 0.00720 0.00039 0.00067 0.00165
MgM1 0.00783 0.00744 0.00799 0.00007 0.00268 0.00038
Fe2+M1 0.00783 0.00744 0.00799 0.00007 0.00268 0.00038
Fe3+M1 0.00783 0.00744 0.00799 0.00007 0.00268 0.00038
TiM1 0.00783 0.00744 0.00799 0.00007 0.00268 0.00038
MnM1 0.00783 0.00744 0.00799 0.00007 0.00268 0.00038
SiA 0.00602 0.00690 0.01006 -0.00057 0.00348 -0.00060
SiB 0.00628 0.00696 0.00788 -0.00111 0.00293 -0.00093
AlB 0.00628 0.00696 0.00788 -0.00111 0.00293 -0.00093
O1A 0.00638 0.00984 0.00986 0.00040 0.00255 -0.00010
O2A 0.01251 0.00908 0.01344 -0.00319 0.00627 -0.00149
O3A 0.00895 0.02313 0.02042 0.00090 0.00482 0.01377
O1B 0.00700 0.01044 0.01002 0.00053 0.00325 -0.00021
O2B 0.01444 0.01215 0.02148 -0.00605 0.01039 -0.00722
O3B 0.00844 0.02056 0.01342 0.00065 0.00397 0.00786
loop_
_atom_site_label
_atom_site_fract_x
_atom_site_fract_y
_atom_site_fract_z
_atom_site_occupancy
_atom_site_U_iso_or_equiv
MgM2A 0.25529 0.01698 0.22784 0.16330 ?
FeM2A 0.25529 0.01698 0.22784 0.61730 ?
CaM2A 0.25529 0.01698 0.22784 0.07980 ?
MnM2A 0.25529 0.01698 0.22784 0.02580 ?
NaM2A 0.25529 0.01698 0.22784 0.00290 ?
CaM2B 0.25480 0.04999 0.25107 0.11090 0.01253
MgM1 0.25049 0.65461 0.23163 0.75370 ?
Fe2+M1 0.25049 0.65461 0.23163 0.21820 ?
Fe3+M1 0.25049 0.65461 0.23163 0.01490 ?
TiM1 0.25049 0.65461 0.23163 0.01000 ?
MnM1 0.25049 0.65461 0.23163 0.00310 ?
SiA 0.04274 0.34051 0.27673 1.00000 ?
SiB 0.54947 0.83744 0.23853 0.98400 ?
AlB 0.54947 0.83744 0.23853 0.01600 ?
O1A 0.86746 0.33820 0.16884 1.00000 ?
O2A 0.12181 0.49926 0.33205 1.00000 ?
O3A 0.10420 0.26185 0.57800 1.00000 ?
O1B 0.37369 0.83679 0.13467 1.00000 ?
O2B 0.62919 0.98742 0.37297 1.00000 ?
O3B 0.60488 0.70911 0.48089 1.00000 ?
