#------------------------------------------------------------------------------
#$Date: 2016-02-16 14:49:47 +0200 (Tue, 16 Feb 2016) $
#$Revision: 176465 $
#$URL: svn://www.crystallography.net/cod/cif/9/00/34/9003436.cif $
#------------------------------------------------------------------------------
#
# This file is available in the Crystallography Open Database (COD),
# http://www.crystallography.net/. The original data for this entry
# were provided the American Mineralogist Crystal Structure Database,
# http://rruff.geo.arizona.edu/AMS/amcsd.php
#
# The file may be used within the scientific community so long as
# proper attribution is given to the journal article from which the
# data were obtained.
#
data_9003436
loop_
_publ_author_name
'Thompson, R. M.'
'Downs, R. T.'
_publ_section_title
;Model pyroxenes II: Structural variation as a function of tetrahedral
 rotation model hi-P protopx at 2.50 GPa after Yang et al. (1999) with
 O3A-O3A-O3A angle = 154.0, O3B-O3B-O3B angle = 212.1, and model oxygen radius
 = 1.315 Note: Atoms Mg, Si, and O are assigned to atomic positions for
 convenience
;
_journal_name_full               'American Mineralogist'
_journal_page_first              614
_journal_page_last               628
_journal_volume                  89
_journal_year                    2004
_chemical_formula_sum            'Mg O3 Si'
_chemical_name_mineral           Pyroxene-ideal
_symmetry_space_group_name_H-M   'P 21 c n'
_cell_angle_alpha                90
_cell_angle_beta                 90
_cell_angle_gamma                90
_cell_length_a                   9.127
_cell_length_b                   8.877
_cell_length_c                   5.125
_cell_volume                     415.229
_exptl_crystal_density_diffrn    3.212
_cod_original_formula_sum        'Mg Si O3'
_cod_database_code               9003436
loop_
_symmetry_equiv_pos_as_xyz
x,y,z
x,-y,1/2+z
1/2+x,1/2+y,1/2-z
1/2+x,1/2-y,-z
loop_
_atom_site_label
_atom_site_fract_x
_atom_site_fract_y
_atom_site_fract_z
Mg 0.00000 0.08333 0.70040
Mg 0.00000 0.25000 0.20040
SiA 0.30880 0.08333 0.05000
SiB 0.19200 0.58333 0.11670
O1A 0.13240 0.08333 0.05000
O2A 0.36760 0.25000 0.11670
O3A 0.36760 -0.03340 0.26660
O1B 0.37090 0.58333 0.11670
O2B 0.13240 0.75000 0.03370
O3B 0.13240 0.45850 -0.09180
