#------------------------------------------------------------------------------
#$Date: 2016-02-16 14:49:47 +0200 (Tue, 16 Feb 2016) $
#$Revision: 176465 $
#$URL: svn://www.crystallography.net/cod/cif/9/00/38/9003862.cif $
#------------------------------------------------------------------------------
#
# This file is available in the Crystallography Open Database (COD),
# http://www.crystallography.net/. The original data for this entry
# were provided the American Mineralogist Crystal Structure Database,
# http://rruff.geo.arizona.edu/AMS/amcsd.php
#
# The file may be used within the scientific community so long as
# proper attribution is given to the journal article from which the
# data were obtained.
#
data_9003862
loop_
_publ_author_name
'Domeneghetti, M. C.'
'Zema, M.'
'Tazzoli, V.'
_publ_section_title
;
 Kinetics of Fe2+-Mg order-disorder in P2_1/c pigeonite
 Locality: Parana, Brazil
 Sample: N.13, annealed at T = 650 C for t = 7440 min
;
_journal_name_full               'American Mineralogist'
_journal_page_first              1816
_journal_page_last               1823
_journal_paper_doi               10.2138/am.2005.1773
_journal_volume                  90
_journal_year                    2005
_chemical_formula_sum
'Al0.016 Ca0.191 Fe0.849 Mg0.918 Mn0.029 Na0.003 O6 Si1.984 Ti0.01'
_chemical_name_mineral           Pigeonite
_space_group_IT_number           14
_symmetry_space_group_name_Hall  '-P 2ybc'
_symmetry_space_group_name_H-M   'P 1 21/c 1'
_cell_angle_alpha                90
_cell_angle_beta                 108.485
_cell_angle_gamma                90
_cell_length_a                   9.7079
_cell_length_b                   8.9442
_cell_length_c                   5.2463
_cell_volume                     432.031
_exptl_crystal_density_diffrn    3.562
_exptl_crystal_thermal_history   'annealed at T = 650 C for t = 7440 min'
_cod_original_formula_sum
'Mg.918 Fe.849 Ca.191 Mn.029 Na.003 Ti.01 Si1.984 Al.016 O6'
_cod_database_code               9003862
loop_
_symmetry_equiv_pos_as_xyz
x,y,z
x,1/2-y,1/2+z
-x,1/2+y,1/2-z
-x,-y,-z
loop_
_atom_site_aniso_label
_atom_site_aniso_U_11
_atom_site_aniso_U_22
_atom_site_aniso_U_33
_atom_site_aniso_U_12
_atom_site_aniso_U_13
_atom_site_aniso_U_23
MgM2A 0.01024 0.01173 0.00725 0.00048 0.00074 0.00164
FeM2A 0.01024 0.01173 0.00725 0.00048 0.00074 0.00164
CaM2A 0.01024 0.01173 0.00725 0.00048 0.00074 0.00164
MnM2A 0.01024 0.01173 0.00725 0.00048 0.00074 0.00164
NaM2A 0.01024 0.01173 0.00725 0.00048 0.00074 0.00164
MgM1 0.00781 0.00714 0.00778 0.00009 0.00257 0.00039
Fe2+M1 0.00781 0.00714 0.00778 0.00009 0.00257 0.00039
Fe3+M1 0.00781 0.00714 0.00778 0.00009 0.00257 0.00039
TiM1 0.00781 0.00714 0.00778 0.00009 0.00257 0.00039
MnM1 0.00781 0.00714 0.00778 0.00009 0.00257 0.00039
SiA 0.00602 0.00658 0.00998 -0.00058 0.00333 -0.00057
SiB 0.00636 0.00665 0.00793 -0.00107 0.00295 -0.00087
AlB 0.00636 0.00665 0.00793 -0.00107 0.00295 -0.00087
O1A 0.00681 0.00982 0.00949 0.00028 0.00293 -0.00010
O2A 0.01240 0.00899 0.01318 -0.00321 0.00598 -0.00163
O3A 0.00879 0.02280 0.02059 0.00089 0.00427 0.01376
O1B 0.00674 0.01015 0.01039 0.00060 0.00333 -0.00007
O2B 0.01455 0.01204 0.02105 -0.00601 0.01067 -0.00744
O3B 0.00843 0.02042 0.01340 0.00060 0.00374 0.00776
loop_
_atom_site_label
_atom_site_fract_x
_atom_site_fract_y
_atom_site_fract_z
_atom_site_occupancy
_atom_site_U_iso_or_equiv
MgM2A 0.25528 0.01698 0.22789 0.16340 ?
FeM2A 0.25528 0.01698 0.22789 0.61710 ?
CaM2A 0.25528 0.01698 0.22789 0.08210 ?
MnM2A 0.25528 0.01698 0.22789 0.02570 ?
NaM2A 0.25528 0.01698 0.22789 0.00300 ?
CaM2B 0.25459 0.04976 0.25026 0.10870 0.01189
MgM1 0.25049 0.65462 0.23158 0.75500 ?
Fe2+M1 0.25049 0.65462 0.23158 0.21700 ?
Fe3+M1 0.25049 0.65462 0.23158 0.01480 ?
TiM1 0.25049 0.65462 0.23158 0.01010 ?
MnM1 0.25049 0.65462 0.23158 0.00310 ?
SiA 0.04273 0.34048 0.27675 1.00000 ?
SiB 0.54951 0.83743 0.23847 0.98400 ?
AlB 0.54951 0.83743 0.23847 0.01600 ?
O1A 0.86764 0.33817 0.16910 1.00000 ?
O2A 0.12177 0.49927 0.33190 1.00000 ?
O3A 0.10417 0.26171 0.57802 1.00000 ?
O1B 0.37369 0.83670 0.13482 1.00000 ?
O2B 0.62906 0.98753 0.37293 1.00000 ?
O3B 0.60493 0.70895 0.48070 1.00000 ?
