#------------------------------------------------------------------------------
#$Date: 2016-02-16 14:49:47 +0200 (Tue, 16 Feb 2016) $
#$Revision: 176465 $
#$URL: svn://www.crystallography.net/cod/cif/9/00/38/9003851.cif $
#------------------------------------------------------------------------------
#
# This file is available in the Crystallography Open Database (COD),
# http://www.crystallography.net/. The original data for this entry
# were provided the American Mineralogist Crystal Structure Database,
# http://rruff.geo.arizona.edu/AMS/amcsd.php
#
# The file may be used within the scientific community so long as
# proper attribution is given to the journal article from which the
# data were obtained.
#
data_9003851
loop_
_publ_author_name
'Domeneghetti, M. C.'
'Zema, M.'
'Tazzoli, V.'
_publ_section_title
;
 Kinetics of Fe2+-Mg order-disorder in P2_1/c pigeonite
 Locality: Parana, Brazil
 Sample: N.35, annealed at T = 800 C for t = 10 min
;
_journal_name_full               'American Mineralogist'
_journal_page_first              1816
_journal_page_last               1823
_journal_paper_doi               10.2138/am.2005.1773
_journal_volume                  90
_journal_year                    2005
_chemical_formula_sum
'Al0.016 Ca0.191 Fe0.85 Mg0.918 Mn0.029 Na0.003 O6 Si1.984 Ti0.01'
_chemical_name_mineral           Pigeonite
_space_group_IT_number           14
_symmetry_space_group_name_Hall  '-P 2ybc'
_symmetry_space_group_name_H-M   'P 1 21/c 1'
_cell_angle_alpha                90
_cell_angle_beta                 108.478
_cell_angle_gamma                90
_cell_length_a                   9.7113
_cell_length_b                   8.9455
_cell_length_c                   5.2504
_cell_volume                     432.600
_exptl_crystal_density_diffrn    3.557
_exptl_crystal_thermal_history   'annealed at T = 800 C for t = 10 min'
_cod_original_formula_sum
'Mg.918 Fe.85 Ca.191 Mn.029 Na.003 Ti.01 Si1.984 Al.016 O6'
_cod_database_code               9003851
loop_
_symmetry_equiv_pos_as_xyz
x,y,z
x,1/2-y,1/2+z
-x,1/2+y,1/2-z
-x,-y,-z
loop_
_atom_site_aniso_label
_atom_site_aniso_U_11
_atom_site_aniso_U_22
_atom_site_aniso_U_33
_atom_site_aniso_U_12
_atom_site_aniso_U_13
_atom_site_aniso_U_23
MgM2A 0.00975 0.01141 0.00659 0.00037 0.00064 0.00188
FeM2A 0.00975 0.01141 0.00659 0.00037 0.00064 0.00188
CaM2A 0.00975 0.01141 0.00659 0.00037 0.00064 0.00188
MnM2A 0.00975 0.01141 0.00659 0.00037 0.00064 0.00188
NaM2A 0.00975 0.01141 0.00659 0.00037 0.00064 0.00188
MgM1 0.00763 0.00706 0.00777 0.00015 0.00250 0.00041
Fe2+M1 0.00763 0.00706 0.00777 0.00015 0.00250 0.00041
Fe3+M1 0.00763 0.00706 0.00777 0.00015 0.00250 0.00041
TiM1 0.00763 0.00706 0.00777 0.00015 0.00250 0.00041
MnM1 0.00763 0.00706 0.00777 0.00015 0.00250 0.00041
SiA 0.00572 0.00660 0.01016 -0.00051 0.00345 -0.00067
SiB 0.00618 0.00654 0.00781 -0.00106 0.00277 -0.00094
AlB 0.00618 0.00654 0.00781 -0.00106 0.00277 -0.00094
O1A 0.00626 0.01007 0.00978 0.00010 0.00281 -0.00004
O2A 0.01218 0.00884 0.01341 -0.00333 0.00596 -0.00116
O3A 0.00845 0.02190 0.02059 0.00071 0.00444 0.01372
O1B 0.00694 0.01053 0.00986 0.00066 0.00331 0.00013
O2B 0.01423 0.01239 0.02124 -0.00606 0.01003 -0.00753
O3B 0.00720 0.02065 0.01305 0.00017 0.00328 0.00776
loop_
_atom_site_label
_atom_site_fract_x
_atom_site_fract_y
_atom_site_fract_z
_atom_site_occupancy
_atom_site_U_iso_or_equiv
MgM2A 0.25527 0.01680 0.22766 0.19400 ?
FeM2A 0.25527 0.01680 0.22766 0.58680 ?
CaM2A 0.25527 0.01680 0.22766 0.06910 ?
MnM2A 0.25527 0.01680 0.22766 0.02520 ?
NaM2A 0.25527 0.01680 0.22766 0.00300 ?
CaM2B 0.25443 0.04902 0.25165 0.12180 0.01316
MgM1 0.25042 0.65455 0.23155 0.72360 ?
Fe2+M1 0.25042 0.65455 0.23155 0.24780 ?
Fe3+M1 0.25042 0.65455 0.23155 0.01490 ?
TiM1 0.25042 0.65455 0.23155 0.01000 ?
MnM1 0.25042 0.65455 0.23155 0.00370 ?
SiA 0.04273 0.34053 0.27684 1.00000 ?
SiB 0.54941 0.83744 0.23859 0.98400 ?
AlB 0.54941 0.83744 0.23859 0.01600 ?
O1A 0.86769 0.33840 0.16897 1.00000 ?
O2A 0.12170 0.49935 0.33198 1.00000 ?
O3A 0.10415 0.26197 0.57744 1.00000 ?
O1B 0.37368 0.83680 0.13468 1.00000 ?
O2B 0.62903 0.98740 0.37316 1.00000 ?
O3B 0.60475 0.70920 0.48113 1.00000 ?
