#------------------------------------------------------------------------------
#$Date: 2016-02-16 14:49:47 +0200 (Tue, 16 Feb 2016) $
#$Revision: 176465 $
#$URL: svn://www.crystallography.net/cod/cif/9/00/30/9003058.cif $
#------------------------------------------------------------------------------
#
# This file is available in the Crystallography Open Database (COD),
# http://www.crystallography.net/. The original data for this entry
# were provided the American Mineralogist Crystal Structure Database,
# http://rruff.geo.arizona.edu/AMS/amcsd.php
#
# The file may be used within the scientific community so long as
# proper attribution is given to the journal article from which the
# data were obtained.
#
data_9003058
loop_
_publ_author_name
'Camara, F.'
'Carpenter, M. A.'
'Domeneghetti, M. C.'
'Tazzoli, V.'
_publ_section_title
;
 Coupling between non-convergent ordering and transition temperature
 in the C2/c - P2_1/c phase transition in pigeonite
 Sample: BTS-308 n.17-1, before heat treatment
;
_journal_name_full               'American Mineralogist'
_journal_page_first              1115
_journal_page_last               1128
_journal_volume                  88
_journal_year                    2003
_chemical_formula_sum            'Ca0.195 Fe0.838 Mg0.922 Mn0.027 O6 Si2'
_chemical_name_mineral           Pigeonite
_space_group_IT_number           14
_symmetry_space_group_name_Hall  '-P 2ybc'
_symmetry_space_group_name_H-M   'P 1 21/c 1'
_cell_angle_alpha                90
_cell_angle_beta                 108.49
_cell_angle_gamma                90
_cell_length_a                   9.716
_cell_length_b                   8.946
_cell_length_c                   5.252
_cell_volume                     432.935
_exptl_crystal_density_diffrn    3.539
_cod_original_formula_sum        'O6 Si2 Mg.922 Fe.838 Mn.027 Ca.195'
_cod_database_code               9003058
loop_
_symmetry_equiv_pos_as_xyz
x,y,z
x,1/2-y,1/2+z
-x,1/2+y,1/2-z
-x,-y,-z
loop_
_atom_site_aniso_label
_atom_site_aniso_U_11
_atom_site_aniso_U_22
_atom_site_aniso_U_33
_atom_site_aniso_U_12
_atom_site_aniso_U_13
_atom_site_aniso_U_23
O1A 0.00500 0.00800 0.01000 0.00000 0.00200 0.00000
O1b 0.00600 0.00800 0.01000 0.00100 0.00200 0.00000
O2A 0.01100 0.00700 0.01300 -0.00200 0.00500 -0.00100
O2B 0.01400 0.01000 0.02000 -0.00700 0.00900 -0.00700
O3A 0.00700 0.02400 0.02200 -0.00100 0.00400 0.00000
O3B 0.00700 0.01900 0.01300 0.00100 0.00300 0.00800
SiA 0.00500 0.00500 0.01000 -0.00100 0.00300 -0.00100
SiB 0.00500 0.00500 0.00700 -0.00100 0.00300 -0.00100
MgM1 0.00600 0.00600 0.00700 0.00000 0.00200 0.00000
FeM1 0.00600 0.00600 0.00700 0.00000 0.00200 0.00000
MnM1 0.00600 0.00600 0.00700 0.00000 0.00200 0.00000
CaM2 0.00800 0.01500 0.00700 0.00100 0.00000 0.00200
MgM2 0.00800 0.01500 0.00700 0.00100 0.00000 0.00200
FeM2 0.00800 0.01500 0.00700 0.00100 0.00000 0.00200
MnM2 0.00800 0.01500 0.00700 0.00100 0.00000 0.00200
loop_
_atom_site_label
_atom_site_fract_x
_atom_site_fract_y
_atom_site_fract_z
_atom_site_occupancy
_atom_site_U_iso_or_equiv
O1A -0.13260 0.33810 0.16880 1.00000 0.00800
O1b 0.37360 0.83640 0.13440 1.00000 0.00800
O2A 0.12180 0.49940 0.33240 1.00000 0.01000
O2B 0.62880 0.98790 0.37260 1.00000 0.01400
O3A 0.10430 0.23910 0.07650 1.00000 0.01800
O3B 0.60500 0.70970 0.48080 1.00000 0.01300
SiA 0.04260 0.34050 0.27610 1.00000 0.00600
SiB 0.54940 0.83740 0.23860 1.00000 0.00600
MgM1 0.25040 0.65470 0.23190 0.75950 0.00600
FeM1 0.25040 0.65470 0.23190 0.21550 0.00600
MnM1 0.25040 0.65470 0.23190 0.00700 0.00600
CaM2 0.25520 0.01900 0.22940 0.19500 0.01100
MgM2 0.25520 0.01900 0.22940 0.16240 0.01100
FeM2 0.25520 0.01900 0.22940 0.62220 0.01100
MnM2 0.25520 0.01900 0.22940 0.02040 0.01100
