#------------------------------------------------------------------------------
#$Date: 2016-02-16 14:49:47 +0200 (Tue, 16 Feb 2016) $
#$Revision: 176465 $
#$URL: svn://www.crystallography.net/cod/cif/9/00/38/9003864.cif $
#------------------------------------------------------------------------------
#
# This file is available in the Crystallography Open Database (COD),
# http://www.crystallography.net/. The original data for this entry
# were provided the American Mineralogist Crystal Structure Database,
# http://rruff.geo.arizona.edu/AMS/amcsd.php
#
# The file may be used within the scientific community so long as
# proper attribution is given to the journal article from which the
# data were obtained.
#
data_9003864
loop_
_publ_author_name
'Domeneghetti, M. C.'
'Zema, M.'
'Tazzoli, V.'
_publ_section_title
;
 Kinetics of Fe2+-Mg order-disorder in P2_1/c pigeonite
 Locality: Parana, Brazil
 Sample: N.13, annealed at T = 750 C for t = 15 min
;
_journal_name_full               'American Mineralogist'
_journal_page_first              1816
_journal_page_last               1823
_journal_paper_doi               10.2138/am.2005.1773
_journal_volume                  90
_journal_year                    2005
_chemical_formula_sum
'Al0.016 Ca0.191 Fe0.847 Mg0.919 Mn0.029 Na0.003 O6 Si1.984 Ti0.01'
_chemical_name_mineral           Pigeonite
_space_group_IT_number           14
_symmetry_space_group_name_Hall  '-P 2ybc'
_symmetry_space_group_name_H-M   'P 1 21/c 1'
_cell_angle_alpha                90
_cell_angle_beta                 108.495
_cell_angle_gamma                90
_cell_length_a                   9.7100
_cell_length_b                   8.9425
_cell_length_c                   5.2470
_cell_volume                     432.074
_exptl_crystal_density_diffrn    3.561
_exptl_crystal_thermal_history   'annealed at T = 750 C for t = 15 min'
_cod_original_formula_sum
'Mg.919 Fe.847 Ca.191 Mn.029 Na.003 Ti.01 Si1.984 Al.016 O6'
_cod_database_code               9003864
loop_
_symmetry_equiv_pos_as_xyz
x,y,z
x,1/2-y,1/2+z
-x,1/2+y,1/2-z
-x,-y,-z
loop_
_atom_site_aniso_label
_atom_site_aniso_U_11
_atom_site_aniso_U_22
_atom_site_aniso_U_33
_atom_site_aniso_U_12
_atom_site_aniso_U_13
_atom_site_aniso_U_23
MgM2A 0.01016 0.01132 0.00729 0.00055 0.00086 0.00178
FeM2A 0.01016 0.01132 0.00729 0.00055 0.00086 0.00178
CaM2A 0.01016 0.01132 0.00729 0.00055 0.00086 0.00178
MnM2A 0.01016 0.01132 0.00729 0.00055 0.00086 0.00178
NaM2A 0.01016 0.01132 0.00729 0.00055 0.00086 0.00178
MgM1 0.00802 0.00692 0.00772 0.00012 0.00266 0.00039
Fe2+M1 0.00802 0.00692 0.00772 0.00012 0.00266 0.00039
Fe3+M1 0.00802 0.00692 0.00772 0.00012 0.00266 0.00039
TiM1 0.00802 0.00692 0.00772 0.00012 0.00266 0.00039
MnM1 0.00802 0.00692 0.00772 0.00012 0.00266 0.00039
SiA 0.00627 0.00640 0.01010 -0.00047 0.00371 -0.00065
SiB 0.00652 0.00627 0.00804 -0.00094 0.00296 -0.00087
AlB 0.00652 0.00627 0.00804 -0.00094 0.00296 -0.00087
O1A 0.00695 0.00950 0.00970 0.00021 0.00295 -0.00012
O2A 0.01309 0.00848 0.01354 -0.00316 0.00624 -0.00146
O3A 0.00853 0.02142 0.02115 0.00051 0.00415 0.01336
O1B 0.00744 0.00988 0.01024 0.00031 0.00332 -0.00014
O2B 0.01423 0.01213 0.02085 -0.00588 0.00957 -0.00728
O3B 0.00785 0.01952 0.01334 0.00024 0.00330 0.00733
loop_
_atom_site_label
_atom_site_fract_x
_atom_site_fract_y
_atom_site_fract_z
_atom_site_occupancy
_atom_site_U_iso_or_equiv
MgM2A 0.25535 0.01688 0.22776 0.17660 ?
FeM2A 0.25535 0.01688 0.22776 0.60350 ?
CaM2A 0.25535 0.01688 0.22776 0.08540 ?
MnM2A 0.25535 0.01688 0.22776 0.02540 ?
NaM2A 0.25535 0.01688 0.22776 0.00300 ?
CaM2B 0.25423 0.05063 0.24967 0.10600 0.01089
MgM1 0.25049 0.65454 0.23140 0.74270 ?
Fe2+M1 0.25049 0.65454 0.23140 0.22910 ?
Fe3+M1 0.25049 0.65454 0.23140 0.01480 ?
TiM1 0.25049 0.65454 0.23140 0.01010 ?
MnM1 0.25049 0.65454 0.23140 0.00330 ?
SiA 0.04273 0.34053 0.27699 1.00000 ?
SiB 0.54951 0.83741 0.23850 0.98400 ?
AlB 0.54951 0.83741 0.23850 0.01600 ?
O1A 0.86757 0.33834 0.16923 1.00000 ?
O2A 0.12180 0.49944 0.33191 1.00000 ?
O3A 0.10402 0.26172 0.57753 1.00000 ?
O1B 0.37362 0.83673 0.13455 1.00000 ?
O2B 0.62906 0.98727 0.37314 1.00000 ?
O3B 0.60483 0.70913 0.48065 1.00000 ?
