#------------------------------------------------------------------------------
#$Date: 2016-02-16 14:49:47 +0200 (Tue, 16 Feb 2016) $
#$Revision: 176465 $
#$URL: svn://www.crystallography.net/cod/cif/9/00/38/9003865.cif $
#------------------------------------------------------------------------------
#
# This file is available in the Crystallography Open Database (COD),
# http://www.crystallography.net/. The original data for this entry
# were provided the American Mineralogist Crystal Structure Database,
# http://rruff.geo.arizona.edu/AMS/amcsd.php
#
# The file may be used within the scientific community so long as
# proper attribution is given to the journal article from which the
# data were obtained.
#
data_9003865
loop_
_publ_author_name
'Domeneghetti, M. C.'
'Zema, M.'
'Tazzoli, V.'
_publ_section_title
;
 Kinetics of Fe2+-Mg order-disorder in P2_1/c pigeonite
 Locality: Parana, Brazil
 Sample: N.13, annealed at T = 750 C for t = 25 min
;
_journal_name_full               'American Mineralogist'
_journal_page_first              1816
_journal_page_last               1823
_journal_paper_doi               10.2138/am.2005.1773
_journal_volume                  90
_journal_year                    2005
_chemical_formula_sum
'Al0.016 Ca0.191 Fe0.849 Mg0.919 Mn0.029 Na0.003 O6 Si1.984 Ti0.01'
_chemical_name_mineral           Pigeonite
_space_group_IT_number           14
_symmetry_space_group_name_Hall  '-P 2ybc'
_symmetry_space_group_name_H-M   'P 1 21/c 1'
_cell_angle_alpha                90
_cell_angle_beta                 108.491
_cell_angle_gamma                90
_cell_length_a                   9.7086
_cell_length_b                   8.9436
_cell_length_c                   5.2464
_cell_volume                     432.026
_exptl_crystal_density_diffrn    3.561
_exptl_crystal_thermal_history   'annealed at T = 750 C for t = 25 min'
_cod_original_formula_sum
'Mg.919 Fe.849 Ca.191 Mn.029 Na.003 Ti.01 Si1.984 Al.016 O6'
_cod_database_code               9003865
loop_
_symmetry_equiv_pos_as_xyz
x,y,z
x,1/2-y,1/2+z
-x,1/2+y,1/2-z
-x,-y,-z
loop_
_atom_site_aniso_label
_atom_site_aniso_U_11
_atom_site_aniso_U_22
_atom_site_aniso_U_33
_atom_site_aniso_U_12
_atom_site_aniso_U_13
_atom_site_aniso_U_23
MgM2A 0.00987 0.01170 0.00701 0.00071 0.00070 0.00190
FeM2A 0.00987 0.01170 0.00701 0.00071 0.00070 0.00190
CaM2A 0.00987 0.01170 0.00701 0.00071 0.00070 0.00190
MnM2A 0.00987 0.01170 0.00701 0.00071 0.00070 0.00190
NaM2A 0.00987 0.01170 0.00701 0.00071 0.00070 0.00190
MgM1 0.00804 0.00717 0.00771 0.00009 0.00257 0.00042
Fe2+M1 0.00804 0.00717 0.00771 0.00009 0.00257 0.00042
Fe3+M1 0.00804 0.00717 0.00771 0.00009 0.00257 0.00042
TiM1 0.00804 0.00717 0.00771 0.00009 0.00257 0.00042
MnM1 0.00804 0.00717 0.00771 0.00009 0.00257 0.00042
SiA 0.00604 0.00660 0.01008 -0.00051 0.00332 -0.00072
SiB 0.00641 0.00640 0.00777 -0.00101 0.00278 -0.00095
AlB 0.00641 0.00640 0.00777 -0.00101 0.00278 -0.00095
O1A 0.00677 0.00988 0.00967 0.00010 0.00245 -0.00010
O2A 0.01296 0.00857 0.01305 -0.00304 0.00605 -0.00139
O3A 0.00864 0.02201 0.02039 0.00071 0.00443 0.01312
O1B 0.00695 0.01040 0.00974 0.00043 0.00299 -0.00025
O2B 0.01441 0.01208 0.02082 -0.00542 0.01010 -0.00738
O3B 0.00741 0.01993 0.01378 0.00053 0.00298 0.00789
loop_
_atom_site_label
_atom_site_fract_x
_atom_site_fract_y
_atom_site_fract_z
_atom_site_occupancy
_atom_site_U_iso_or_equiv
MgM2A 0.25534 0.01708 0.22787 0.18090 ?
FeM2A 0.25534 0.01708 0.22787 0.59980 ?
CaM2A 0.25534 0.01708 0.22787 0.09180 ?
MnM2A 0.25534 0.01708 0.22787 0.02540 ?
NaM2A 0.25534 0.01708 0.22787 0.00300 ?
CaM2B 0.25381 0.05220 0.25043 0.09910 0.01222
MgM1 0.25045 0.65455 0.23136 0.73780 ?
Fe2+M1 0.25045 0.65455 0.23136 0.23390 ?
Fe3+M1 0.25045 0.65455 0.23136 0.01480 ?
TiM1 0.25045 0.65455 0.23136 0.01010 ?
MnM1 0.25045 0.65455 0.23136 0.00340 ?
SiA 0.04278 0.34054 0.27715 1.00000 ?
SiB 0.54949 0.83744 0.23844 0.98400 ?
AlB 0.54949 0.83744 0.23844 0.01600 ?
O1A 0.86764 0.33835 0.16909 1.00000 ?
O2A 0.12162 0.49931 0.33196 1.00000 ?
O3A 0.10419 0.26187 0.57790 1.00000 ?
O1B 0.37367 0.83671 0.13438 1.00000 ?
O2B 0.62902 0.98726 0.37313 1.00000 ?
O3B 0.60487 0.70912 0.48058 1.00000 ?
