#------------------------------------------------------------------------------
#$Date: 2016-02-16 14:49:47 +0200 (Tue, 16 Feb 2016) $
#$Revision: 176465 $
#$URL: svn://www.crystallography.net/cod/cif/9/00/38/9003848.cif $
#------------------------------------------------------------------------------
#
# This file is available in the Crystallography Open Database (COD),
# http://www.crystallography.net/. The original data for this entry
# were provided the American Mineralogist Crystal Structure Database,
# http://rruff.geo.arizona.edu/AMS/amcsd.php
#
# The file may be used within the scientific community so long as
# proper attribution is given to the journal article from which the
# data were obtained.
#
data_9003848
loop_
_publ_author_name
'Domeneghetti, M. C.'
'Zema, M.'
'Tazzoli, V.'
_publ_section_title
;
 Kinetics of Fe2+-Mg order-disorder in P2_1/c pigeonite
 Locality: Parana, Brazil
 Sample: N.35, annealed at T = 800 C for t = 1.5 min
;
_journal_name_full               'American Mineralogist'
_journal_page_first              1816
_journal_page_last               1823
_journal_paper_doi               10.2138/am.2005.1773
_journal_volume                  90
_journal_year                    2005
_chemical_formula_sum
'Al0.016 Ca0.192 Fe0.847 Mg0.919 Mn0.029 Na0.003 O6 Si1.984 Ti0.01'
_chemical_name_mineral           Pigeonite
_space_group_IT_number           14
_symmetry_space_group_name_Hall  '-P 2ybc'
_symmetry_space_group_name_H-M   'P 1 21/c 1'
_cell_angle_alpha                90
_cell_angle_beta                 108.458
_cell_angle_gamma                90
_cell_length_a                   9.7069
_cell_length_b                   8.9427
_cell_length_c                   5.2470
_cell_volume                     432.039
_exptl_crystal_density_diffrn    3.561
_exptl_crystal_thermal_history   'annealed at T = 800 C for t = 1.5 min'
_cod_original_formula_sum
'Mg.919 Fe.847 Ca.192 Mn.029 Na.003 Ti.01 Si1.984 Al.016 O6'
_cod_database_code               9003848
loop_
_symmetry_equiv_pos_as_xyz
x,y,z
x,1/2-y,1/2+z
-x,1/2+y,1/2-z
-x,-y,-z
loop_
_atom_site_aniso_label
_atom_site_aniso_U_11
_atom_site_aniso_U_22
_atom_site_aniso_U_33
_atom_site_aniso_U_12
_atom_site_aniso_U_13
_atom_site_aniso_U_23
MgM2A 0.00965 0.00962 0.00579 0.00010 0.00049 0.00212
FeM2A 0.00965 0.00962 0.00579 0.00010 0.00049 0.00212
CaM2A 0.00965 0.00962 0.00579 0.00010 0.00049 0.00212
MnM2A 0.00965 0.00962 0.00579 0.00010 0.00049 0.00212
NaM2A 0.00965 0.00962 0.00579 0.00010 0.00049 0.00212
MgM1 0.00801 0.00659 0.00730 0.00014 0.00257 0.00041
Fe2+M1 0.00801 0.00659 0.00730 0.00014 0.00257 0.00041
Fe3+M1 0.00801 0.00659 0.00730 0.00014 0.00257 0.00041
TiM1 0.00801 0.00659 0.00730 0.00014 0.00257 0.00041
MnM1 0.00801 0.00659 0.00730 0.00014 0.00257 0.00041
SiA 0.00582 0.00602 0.00968 -0.00053 0.00325 -0.00055
SiB 0.00623 0.00604 0.00751 -0.00104 0.00272 -0.00096
AlB 0.00623 0.00604 0.00751 -0.00104 0.00272 -0.00096
O1A 0.00650 0.00932 0.00932 0.00044 0.00271 -0.00010
O2A 0.01252 0.00851 0.01297 -0.00323 0.00600 -0.00161
O3A 0.00903 0.02168 0.02018 0.00083 0.00433 0.01380
O1B 0.00703 0.01004 0.00937 0.00056 0.00307 -0.00001
O2B 0.01440 0.01201 0.02092 -0.00589 0.01005 -0.00776
O3B 0.00814 0.01937 0.01287 0.00073 0.00345 0.00768
loop_
_atom_site_label
_atom_site_fract_x
_atom_site_fract_y
_atom_site_fract_z
_atom_site_occupancy
_atom_site_U_iso_or_equiv
MgM2A 0.25536 0.01612 0.22725 0.18160 ?
FeM2A 0.25536 0.01612 0.22725 0.59840 ?
CaM2A 0.25536 0.01612 0.22725 0.02120 ?
MnM2A 0.25536 0.01612 0.22725 0.02540 ?
NaM2A 0.25536 0.01612 0.22725 0.00300 ?
CaM2B 0.25379 0.04502 0.24790 0.17030 0.01391
MgM1 0.25041 0.65451 0.23166 0.73740 ?
Fe2+M1 0.25041 0.65451 0.23166 0.23440 ?
Fe3+M1 0.25041 0.65451 0.23166 0.01460 ?
TiM1 0.25041 0.65451 0.23166 0.01010 ?
MnM1 0.25041 0.65451 0.23166 0.00340 ?
SiA 0.04272 0.34058 0.27658 1.00000 ?
SiB 0.54935 0.83746 0.23859 0.98400 ?
AlB 0.54935 0.83746 0.23859 0.01600 ?
O1A 0.86762 0.33828 0.16894 1.00000 ?
O2A 0.12166 0.49935 0.33185 1.00000 ?
O3A 0.10428 0.26163 0.57700 1.00000 ?
O1B 0.37362 0.83683 0.13493 1.00000 ?
O2B 0.62896 0.98739 0.37273 1.00000 ?
O3B 0.60490 0.70959 0.48167 1.00000 ?
