#------------------------------------------------------------------------------
#$Date: 2016-02-16 14:49:47 +0200 (Tue, 16 Feb 2016) $
#$Revision: 176465 $
#$URL: svn://www.crystallography.net/cod/cif/9/00/38/9003859.cif $
#------------------------------------------------------------------------------
#
# This file is available in the Crystallography Open Database (COD),
# http://www.crystallography.net/. The original data for this entry
# were provided the American Mineralogist Crystal Structure Database,
# http://rruff.geo.arizona.edu/AMS/amcsd.php
#
# The file may be used within the scientific community so long as
# proper attribution is given to the journal article from which the
# data were obtained.
#
data_9003859
loop_
_publ_author_name
'Domeneghetti, M. C.'
'Zema, M.'
'Tazzoli, V.'
_publ_section_title
;
 Kinetics of Fe2+-Mg order-disorder in P2_1/c pigeonite
 Locality: Parana, Brazil
 Sample: N.13, annealed at T = 650 C for t = 840 min
;
_journal_name_full               'American Mineralogist'
_journal_page_first              1816
_journal_page_last               1823
_journal_paper_doi               10.2138/am.2005.1773
_journal_volume                  90
_journal_year                    2005
_chemical_formula_sum
'Al0.016 Ca0.191 Fe0.848 Mg0.919 Mn0.029 Na0.003 O6 Si1.984 Ti0.01'
_chemical_name_mineral           Pigeonite
_space_group_IT_number           14
_symmetry_space_group_name_Hall  '-P 2ybc'
_symmetry_space_group_name_H-M   'P 1 21/c 1'
_cell_angle_alpha                90
_cell_angle_beta                 108.496
_cell_angle_gamma                90
_cell_length_a                   9.7083
_cell_length_b                   8.9419
_cell_length_c                   5.2481
_cell_volume                     432.058
_exptl_crystal_density_diffrn    3.561
_exptl_crystal_thermal_history   'annealed at T = 650 C for t = 840 min'
_cod_original_formula_sum
'Mg.919 Fe.848 Ca.191 Mn.029 Na.003 Ti.01 Si1.984 Al.016 O6'
_cod_database_code               9003859
loop_
_symmetry_equiv_pos_as_xyz
x,y,z
x,1/2-y,1/2+z
-x,1/2+y,1/2-z
-x,-y,-z
loop_
_atom_site_aniso_label
_atom_site_aniso_U_11
_atom_site_aniso_U_22
_atom_site_aniso_U_33
_atom_site_aniso_U_12
_atom_site_aniso_U_13
_atom_site_aniso_U_23
MgM2A 0.01008 0.01166 0.00699 0.00053 0.00053 0.00183
FeM2A 0.01008 0.01166 0.00699 0.00053 0.00053 0.00183
CaM2A 0.01008 0.01166 0.00699 0.00053 0.00053 0.00183
MnM2A 0.01008 0.01166 0.00699 0.00053 0.00053 0.00183
NaM2A 0.01008 0.01166 0.00699 0.00053 0.00053 0.00183
MgM1 0.00811 0.00729 0.00780 0.00013 0.00249 0.00038
Fe2+M1 0.00811 0.00729 0.00780 0.00013 0.00249 0.00038
Fe3+M1 0.00811 0.00729 0.00780 0.00013 0.00249 0.00038
TiM1 0.00811 0.00729 0.00780 0.00013 0.00249 0.00038
MnM1 0.00811 0.00729 0.00780 0.00013 0.00249 0.00038
SiA 0.00634 0.00658 0.01007 -0.00048 0.00351 -0.00050
SiB 0.00658 0.00670 0.00770 -0.00097 0.00287 -0.00087
AlB 0.00658 0.00670 0.00770 -0.00097 0.00287 -0.00087
O1A 0.00724 0.00944 0.00946 0.00035 0.00284 0.00003
O2A 0.01267 0.00879 0.01319 -0.00305 0.00593 -0.00145
O3A 0.00896 0.02273 0.02049 0.00052 0.00433 0.01327
O1B 0.00712 0.00992 0.01001 0.00010 0.00308 0.00003
O2B 0.01439 0.01216 0.02052 -0.00591 0.00984 -0.00727
O3B 0.00860 0.02070 0.01275 0.00069 0.00371 0.00768
loop_
_atom_site_label
_atom_site_fract_x
_atom_site_fract_y
_atom_site_fract_z
_atom_site_occupancy
_atom_site_U_iso_or_equiv
MgM2A 0.25535 0.01700 0.22783 0.16380 ?
FeM2A 0.25535 0.01700 0.22783 0.61680 ?
CaM2A 0.25535 0.01700 0.22783 0.08180 ?
MnM2A 0.25535 0.01700 0.22783 0.02560 ?
NaM2A 0.25535 0.01700 0.22783 0.00300 ?
CaM2B 0.25401 0.04996 0.25052 0.10900 0.01286
MgM1 0.25046 0.65464 0.23161 0.75550 ?
Fe2+M1 0.25046 0.65464 0.23161 0.21650 ?
Fe3+M1 0.25046 0.65464 0.23161 0.01470 ?
TiM1 0.25046 0.65464 0.23161 0.01010 ?
MnM1 0.25046 0.65464 0.23161 0.00310 ?
SiA 0.04277 0.34049 0.27664 1.00000 ?
SiB 0.54948 0.83743 0.23862 0.98400 ?
AlB 0.54948 0.83743 0.23862 0.01600 ?
O1A 0.86770 0.33827 0.16899 1.00000 ?
O2A 0.12173 0.49942 0.33207 1.00000 ?
O3A 0.10406 0.26169 0.57778 1.00000 ?
O1B 0.37375 0.83677 0.13478 1.00000 ?
O2B 0.62905 0.98763 0.37286 1.00000 ?
O3B 0.60480 0.70902 0.48066 1.00000 ?
