#------------------------------------------------------------------------------
#$Date: 2016-02-16 14:49:47 +0200 (Tue, 16 Feb 2016) $
#$Revision: 176465 $
#$URL: svn://www.crystallography.net/cod/cif/9/00/34/9003426.cif $
#------------------------------------------------------------------------------
#
# This file is available in the Crystallography Open Database (COD),
# http://www.crystallography.net/. The original data for this entry
# were provided the American Mineralogist Crystal Structure Database,
# http://rruff.geo.arizona.edu/AMS/amcsd.php
#
# The file may be used within the scientific community so long as
# proper attribution is given to the journal article from which the
# data were obtained.
#
data_9003426
loop_
_publ_author_name
'Thompson, R. M.'
'Downs, R. T.'
_publ_section_title
;Model pyroxenes II: Structural variation as a function of tetrahedral
 rotation model orthopx with O3A-O3A-O3A angle = 180, O3B-O3B-O3B angle = 180,
 and model oxygen radius = 1 Note: Atoms Mg, Si, and O are assigned to atomic
 positions for convenience
;
_journal_name_full               'American Mineralogist'
_journal_page_first              614
_journal_page_last               628
_journal_volume                  89
_journal_year                    2004
_chemical_formula_sum            'Mg O3 Si'
_chemical_name_mineral           Pyroxene-ideal
_space_group_IT_number           61
_symmetry_space_group_name_Hall  '-P 2ac 2ab'
_symmetry_space_group_name_H-M   'P b c a'
_cell_angle_alpha                90
_cell_angle_beta                 90
_cell_angle_gamma                90
_cell_length_a                   14.074
_cell_length_b                   6.928
_cell_length_c                   4
_cell_volume                     390.019
_exptl_crystal_density_diffrn    6.839
_cod_original_formula_sum        'Mg Si O3'
_cod_database_code               9003426
loop_
_symmetry_equiv_pos_as_xyz
x,y,z
x,1/2-y,1/2+z
-x,1/2+y,1/2-z
1/2-x,1/2+y,z
1/2+x,1/2-y,-z
1/2+x,y,1/2-z
1/2-x,-y,1/2+z
-x,-y,-z
loop_
_atom_site_label
_atom_site_fract_x
_atom_site_fract_y
_atom_site_fract_z
Mg 0.37500 0.66667 0.91667
Mg 0.37500 0.50000 0.41667
SiA 0.27900 0.33333 0.08333
SiB 0.47100 0.33333 0.75000
O1A 0.19200 0.33333 0.08333
O2A 0.30800 0.50000 0.08333
O3A 0.30800 0.25000 0.83333
O1B 0.55800 0.33333 0.75000
O2B 0.44200 0.50000 0.75000
O3B 0.44200 0.25000 0.50000
