#------------------------------------------------------------------------------
#$Date: 2016-02-16 14:49:47 +0200 (Tue, 16 Feb 2016) $
#$Revision: 176465 $
#$URL: svn://www.crystallography.net/cod/cif/9/00/38/9003852.cif $
#------------------------------------------------------------------------------
#
# This file is available in the Crystallography Open Database (COD),
# http://www.crystallography.net/. The original data for this entry
# were provided the American Mineralogist Crystal Structure Database,
# http://rruff.geo.arizona.edu/AMS/amcsd.php
#
# The file may be used within the scientific community so long as
# proper attribution is given to the journal article from which the
# data were obtained.
#
data_9003852
loop_
_publ_author_name
'Domeneghetti, M. C.'
'Zema, M.'
'Tazzoli, V.'
_publ_section_title
;
 Kinetics of Fe2+-Mg order-disorder in P2_1/c pigeonite
 Locality: Parana, Brazil
 Sample: N.35, annealed at T = 800 C for t = 18 min
;
_journal_name_full               'American Mineralogist'
_journal_page_first              1816
_journal_page_last               1823
_journal_paper_doi               10.2138/am.2005.1773
_journal_volume                  90
_journal_year                    2005
_chemical_formula_sum
'Al0.016 Ca0.191 Fe0.851 Mg0.916 Mn0.029 Na0.003 O6 Si1.984 Ti0.01'
_chemical_name_mineral           Pigeonite
_space_group_IT_number           14
_symmetry_space_group_name_Hall  '-P 2ybc'
_symmetry_space_group_name_H-M   'P 1 21/c 1'
_cell_angle_alpha                90
_cell_angle_beta                 108.463
_cell_angle_gamma                90
_cell_length_a                   9.7134
_cell_length_b                   8.9482
_cell_length_c                   5.2485
_cell_volume                     432.706
_exptl_crystal_density_diffrn    3.557
_exptl_crystal_thermal_history   'annealed at T = 800 C for t = 18 min'
_cod_original_formula_sum
'Mg.916 Fe.851 Ca.191 Mn.029 Na.003 Ti.01 Si1.984 Al.016 O6'
_cod_database_code               9003852
loop_
_symmetry_equiv_pos_as_xyz
x,y,z
x,1/2-y,1/2+z
-x,1/2+y,1/2-z
-x,-y,-z
loop_
_atom_site_aniso_label
_atom_site_aniso_U_11
_atom_site_aniso_U_22
_atom_site_aniso_U_33
_atom_site_aniso_U_12
_atom_site_aniso_U_13
_atom_site_aniso_U_23
MgM2A 0.01022 0.01139 0.00702 0.00050 0.00085 0.00195
FeM2A 0.01022 0.01139 0.00702 0.00050 0.00085 0.00195
CaM2A 0.01022 0.01139 0.00702 0.00050 0.00085 0.00195
MnM2A 0.01022 0.01139 0.00702 0.00050 0.00085 0.00195
NaM2A 0.01022 0.01139 0.00702 0.00050 0.00085 0.00195
MgM1 0.00810 0.00704 0.00795 0.00013 0.00280 0.00034
Fe2+M1 0.00810 0.00704 0.00795 0.00013 0.00280 0.00034
Fe3+M1 0.00810 0.00704 0.00795 0.00013 0.00280 0.00034
TiM1 0.00810 0.00704 0.00795 0.00013 0.00280 0.00034
MnM1 0.00810 0.00704 0.00795 0.00013 0.00280 0.00034
SiA 0.00615 0.00639 0.01013 -0.00059 0.00362 -0.00071
SiB 0.00651 0.00643 0.00767 -0.00106 0.00295 -0.00094
AlB 0.00651 0.00643 0.00767 -0.00106 0.00295 -0.00094
O1A 0.00663 0.00979 0.00951 0.00012 0.00270 -0.00019
O2A 0.01256 0.00863 0.01334 -0.00351 0.00578 -0.00145
O3A 0.00881 0.02292 0.02124 0.00086 0.00484 0.01381
O1B 0.00731 0.01008 0.00977 0.00042 0.00320 0.00007
O2B 0.01506 0.01225 0.02139 -0.00642 0.01038 -0.00775
O3B 0.00811 0.02106 0.01265 0.00068 0.00363 0.00794
loop_
_atom_site_label
_atom_site_fract_x
_atom_site_fract_y
_atom_site_fract_z
_atom_site_occupancy
_atom_site_U_iso_or_equiv
MgM2A 0.25532 0.01672 0.22765 0.19670 ?
FeM2A 0.25532 0.01672 0.22765 0.58430 ?
CaM2A 0.25532 0.01672 0.22765 0.06870 ?
MnM2A 0.25532 0.01672 0.22765 0.02530 ?
NaM2A 0.25532 0.01672 0.22765 0.00290 ?
CaM2B 0.25420 0.04850 0.24953 0.12210 0.01251
MgM1 0.25043 0.65451 0.23151 0.71940 ?
Fe2+M1 0.25043 0.65451 0.23151 0.25180 ?
Fe3+M1 0.25043 0.65451 0.23151 0.01490 ?
TiM1 0.25043 0.65451 0.23151 0.01000 ?
MnM1 0.25043 0.65451 0.23151 0.00380 ?
SiA 0.04281 0.34050 0.27691 1.00000 ?
SiB 0.54944 0.83744 0.23863 0.98400 ?
AlB 0.54944 0.83744 0.23863 0.01600 ?
O1A 0.86774 0.33841 0.16929 1.00000 ?
O2A 0.12166 0.49929 0.33193 1.00000 ?
O3A 0.10406 0.26209 0.57793 1.00000 ?
O1B 0.37380 0.83685 0.13507 1.00000 ?
O2B 0.62891 0.98731 0.37319 1.00000 ?
O3B 0.60480 0.70891 0.48054 1.00000 ?
