#------------------------------------------------------------------------------
#$Date: 2016-02-16 14:49:47 +0200 (Tue, 16 Feb 2016) $
#$Revision: 176465 $
#$URL: svn://www.crystallography.net/cod/cif/9/00/38/9003850.cif $
#------------------------------------------------------------------------------
#
# This file is available in the Crystallography Open Database (COD),
# http://www.crystallography.net/. The original data for this entry
# were provided the American Mineralogist Crystal Structure Database,
# http://rruff.geo.arizona.edu/AMS/amcsd.php
#
# The file may be used within the scientific community so long as
# proper attribution is given to the journal article from which the
# data were obtained.
#
data_9003850
loop_
_publ_author_name
'Domeneghetti, M. C.'
'Zema, M.'
'Tazzoli, V.'
_publ_section_title
;
 Kinetics of Fe2+-Mg order-disorder in P2_1/c pigeonite
 Locality: Parana, Brazil
 Sample: N.35, annealed at T = 800 C for t = 6 min
;
_journal_name_full               'American Mineralogist'
_journal_page_first              1816
_journal_page_last               1823
_journal_paper_doi               10.2138/am.2005.1773
_journal_volume                  90
_journal_year                    2005
_chemical_formula_sum
'Al0.016 Ca0.191 Fe0.852 Mg0.915 Mn0.029 Na0.003 O6 Si1.984 Ti0.01'
_chemical_name_mineral           Pigeonite
_space_group_IT_number           14
_symmetry_space_group_name_Hall  '-P 2ybc'
_symmetry_space_group_name_H-M   'P 1 21/c 1'
_cell_angle_alpha                90
_cell_angle_beta                 108.468
_cell_angle_gamma                90
_cell_length_a                   9.7094
_cell_length_b                   8.9457
_cell_length_c                   5.2478
_cell_volume                     432.336
_exptl_crystal_density_diffrn    3.561
_exptl_crystal_thermal_history   'annealed at T = 800 C for t = 6 min'
_cod_original_formula_sum
'Mg.915 Fe.852 Ca.191 Mn.029 Na.003 Ti.01 Si1.984 Al.016 O6'
_cod_database_code               9003850
loop_
_symmetry_equiv_pos_as_xyz
x,y,z
x,1/2-y,1/2+z
-x,1/2+y,1/2-z
-x,-y,-z
loop_
_atom_site_aniso_label
_atom_site_aniso_U_11
_atom_site_aniso_U_22
_atom_site_aniso_U_33
_atom_site_aniso_U_12
_atom_site_aniso_U_13
_atom_site_aniso_U_23
MgM2A 0.00990 0.01101 0.00662 0.00033 0.00059 0.00198
FeM2A 0.00990 0.01101 0.00662 0.00033 0.00059 0.00198
CaM2A 0.00990 0.01101 0.00662 0.00033 0.00059 0.00198
MnM2A 0.00990 0.01101 0.00662 0.00033 0.00059 0.00198
NaM2A 0.00990 0.01101 0.00662 0.00033 0.00059 0.00198
MgM1 0.00783 0.00679 0.00752 0.00017 0.00256 0.00040
Fe2+M1 0.00783 0.00679 0.00752 0.00017 0.00256 0.00040
Fe3+M1 0.00783 0.00679 0.00752 0.00017 0.00256 0.00040
TiM1 0.00783 0.00679 0.00752 0.00017 0.00256 0.00040
MnM1 0.00783 0.00679 0.00752 0.00017 0.00256 0.00040
SiA 0.00591 0.00623 0.01006 -0.00062 0.00352 -0.00060
SiB 0.00620 0.00626 0.00754 -0.00096 0.00280 -0.00094
AlB 0.00620 0.00626 0.00754 -0.00096 0.00280 -0.00094
O1A 0.00657 0.00939 0.00945 0.00026 0.00272 -0.00023
O2A 0.01292 0.00842 0.01353 -0.00330 0.00620 -0.00128
O3A 0.00848 0.02299 0.02046 0.00056 0.00429 0.01403
O1B 0.00656 0.01032 0.00951 0.00035 0.00277 -0.00005
O2B 0.01447 0.01180 0.02108 -0.00628 0.00990 -0.00763
O3B 0.00771 0.02013 0.01288 0.00056 0.00356 0.00775
loop_
_atom_site_label
_atom_site_fract_x
_atom_site_fract_y
_atom_site_fract_z
_atom_site_occupancy
_atom_site_U_iso_or_equiv
MgM2A 0.25531 0.01664 0.22767 0.18540 ?
FeM2A 0.25531 0.01664 0.22767 0.59520 ?
CaM2A 0.25531 0.01664 0.22767 0.06300 ?
MnM2A 0.25531 0.01664 0.22767 0.02560 ?
NaM2A 0.25531 0.01664 0.22767 0.00290 ?
CaM2B 0.25392 0.04802 0.24929 0.12790 0.01192
MgM1 0.25043 0.65460 0.23158 0.72960 ?
Fe2+M1 0.25043 0.65460 0.23158 0.24180 ?
Fe3+M1 0.25043 0.65460 0.23158 0.01500 ?
TiM1 0.25043 0.65460 0.23158 0.01000 ?
MnM1 0.25043 0.65460 0.23158 0.00360 ?
SiA 0.04276 0.34057 0.27677 1.00000 ?
SiB 0.54937 0.83743 0.23863 0.98400 ?
AlB 0.54937 0.83743 0.23863 0.01600 ?
O1A 0.86762 0.33843 0.16918 1.00000 ?
O2A 0.12164 0.49936 0.33198 1.00000 ?
O3A 0.10413 0.26168 0.57720 1.00000 ?
O1B 0.37359 0.83678 0.13483 1.00000 ?
O2B 0.62899 0.98739 0.37296 1.00000 ?
O3B 0.60464 0.70922 0.48097 1.00000 ?
