#------------------------------------------------------------------------------
#$Date: 2016-02-16 14:49:47 +0200 (Tue, 16 Feb 2016) $
#$Revision: 176465 $
#$URL: svn://www.crystallography.net/cod/cif/9/00/38/9003863.cif $
#------------------------------------------------------------------------------
#
# This file is available in the Crystallography Open Database (COD),
# http://www.crystallography.net/. The original data for this entry
# were provided the American Mineralogist Crystal Structure Database,
# http://rruff.geo.arizona.edu/AMS/amcsd.php
#
# The file may be used within the scientific community so long as
# proper attribution is given to the journal article from which the
# data were obtained.
#
data_9003863
loop_
_publ_author_name
'Domeneghetti, M. C.'
'Zema, M.'
'Tazzoli, V.'
_publ_section_title
;
 Kinetics of Fe2+-Mg order-disorder in P2_1/c pigeonite
 Locality: Parana, Brazil
 Sample: N.13, annealed at T = 750 C for t = 9 min
;
_journal_name_full               'American Mineralogist'
_journal_page_first              1816
_journal_page_last               1823
_journal_paper_doi               10.2138/am.2005.1773
_journal_volume                  90
_journal_year                    2005
_chemical_formula_sum
'Al0.016 Ca0.191 Fe0.851 Mg0.916 Mn0.029 Na0.003 O6 Si1.984 Ti0.01'
_chemical_name_mineral           Pigeonite
_space_group_IT_number           14
_symmetry_space_group_name_Hall  '-P 2ybc'
_symmetry_space_group_name_H-M   'P 1 21/c 1'
_cell_angle_alpha                90
_cell_angle_beta                 108.484
_cell_angle_gamma                90
_cell_length_a                   9.7071
_cell_length_b                   8.9425
_cell_length_c                   5.2463
_cell_volume                     431.915
_exptl_crystal_density_diffrn    3.563
_exptl_crystal_thermal_history   'annealed at T = 750 C for t = 9 min'
_cod_original_formula_sum
'Mg.916 Fe.851 Ca.191 Mn.029 Na.003 Ti.01 Si1.984 Al.016 O6'
_cod_database_code               9003863
loop_
_symmetry_equiv_pos_as_xyz
x,y,z
x,1/2-y,1/2+z
-x,1/2+y,1/2-z
-x,-y,-z
loop_
_atom_site_aniso_label
_atom_site_aniso_U_11
_atom_site_aniso_U_22
_atom_site_aniso_U_33
_atom_site_aniso_U_12
_atom_site_aniso_U_13
_atom_site_aniso_U_23
MgM2A 0.00989 0.01130 0.00689 0.00057 0.00055 0.00187
FeM2A 0.00989 0.01130 0.00689 0.00057 0.00055 0.00187
CaM2A 0.00989 0.01130 0.00689 0.00057 0.00055 0.00187
MnM2A 0.00989 0.01130 0.00689 0.00057 0.00055 0.00187
NaM2A 0.00989 0.01130 0.00689 0.00057 0.00055 0.00187
MgM1 0.00804 0.00740 0.00774 0.00008 0.00243 0.00041
Fe2+M1 0.00804 0.00740 0.00774 0.00008 0.00243 0.00041
Fe3+M1 0.00804 0.00740 0.00774 0.00008 0.00243 0.00041
TiM1 0.00804 0.00740 0.00774 0.00008 0.00243 0.00041
MnM1 0.00804 0.00740 0.00774 0.00008 0.00243 0.00041
SiA 0.00601 0.00660 0.00998 -0.00048 0.00339 -0.00068
SiB 0.00631 0.00652 0.00788 -0.00101 0.00282 -0.00086
AlB 0.00631 0.00652 0.00788 -0.00101 0.00282 -0.00086
O1A 0.00689 0.00971 0.00915 0.00020 0.00280 -0.00028
O2A 0.01295 0.00859 0.01359 -0.00359 0.00648 -0.00140
O3A 0.00843 0.02243 0.02049 0.00020 0.00409 0.01339
O1B 0.00705 0.00997 0.00963 0.00040 0.00299 -0.00017
O2B 0.01425 0.01233 0.02060 -0.00581 0.00991 -0.00727
O3B 0.00792 0.01911 0.01371 0.00043 0.00315 0.00740
loop_
_atom_site_label
_atom_site_fract_x
_atom_site_fract_y
_atom_site_fract_z
_atom_site_occupancy
_atom_site_U_iso_or_equiv
MgM2A 0.25539 0.01686 0.22777 0.17380 ?
FeM2A 0.25539 0.01686 0.22777 0.60670 ?
CaM2A 0.25539 0.01686 0.22777 0.07920 ?
MnM2A 0.25539 0.01686 0.22777 0.02560 ?
NaM2A 0.25539 0.01686 0.22777 0.00290 ?
CaM2B 0.25398 0.04986 0.24917 0.11160 0.01197
MgM1 0.25047 0.65457 0.23144 0.74260 ?
Fe2+M1 0.25047 0.65457 0.23144 0.22910 ?
Fe3+M1 0.25047 0.65457 0.23144 0.01490 ?
TiM1 0.25047 0.65457 0.23144 0.01000 ?
MnM1 0.25047 0.65457 0.23144 0.00330 ?
SiA 0.04278 0.34054 0.27694 1.00000 ?
SiB 0.54950 0.83741 0.23844 0.98400 ?
AlB 0.54950 0.83741 0.23844 0.01600 ?
O1A 0.86756 0.33827 0.16918 1.00000 ?
O2A 0.12173 0.49937 0.33178 1.00000 ?
O3A 0.10402 0.26208 0.57810 1.00000 ?
O1B 0.37355 0.83671 0.13446 1.00000 ?
O2B 0.62906 0.98731 0.37293 1.00000 ?
O3B 0.60480 0.70881 0.48080 1.00000 ?
