#------------------------------------------------------------------------------
#$Date: 2016-02-16 14:49:47 +0200 (Tue, 16 Feb 2016) $
#$Revision: 176465 $
#$URL: svn://www.crystallography.net/cod/cif/9/00/37/9003769.cif $
#------------------------------------------------------------------------------
#
# This file is available in the Crystallography Open Database (COD),
# http://www.crystallography.net/. The original data for this entry
# were provided the American Mineralogist Crystal Structure Database,
# http://rruff.geo.arizona.edu/AMS/amcsd.php
#
# The file may be used within the scientific community so long as
# proper attribution is given to the journal article from which the
# data were obtained.
#
data_9003769
loop_
_publ_author_name
'Ellemann-Olesen R'
'Malcherek, T.'
_publ_section_title
;A high-temperature diffraction study of the solid solution CaTiOSiO4 -
 CaTiOGeO4 Note: Titanite structure Sample: #10, CaTiO(Ge.10Si.90)O4
;
_journal_name_full               'American Mineralogist'
_journal_page_first              1325
_journal_page_last               1334
_journal_paper_doi               10.2138/am.2005.1729
_journal_volume                  90
_journal_year                    2005
_chemical_formula_structural     'CaTiOSiO4 - CaTiOGeO4 join'
_chemical_formula_sum            'Ca Ge0.096 O5 Si0.903 Ti'
_space_group_IT_number           14
_symmetry_space_group_name_Hall  '-P 2yab'
_symmetry_space_group_name_H-M   'P 1 21/a 1'
_cell_angle_alpha                90
_cell_angle_beta                 113.782
_cell_angle_gamma                90
_cell_length_a                   7.06582
_cell_length_b                   8.73056
_cell_length_c                   6.56626
_cell_volume                     370.668
_exptl_crystal_density_diffrn    3.589
_cod_original_formula_sum        'Ca Ti Ge.096 Si.903 O5'
_cod_database_code               9003769
loop_
_symmetry_equiv_pos_as_xyz
x,y,z
1/2+x,1/2-y,z
1/2-x,1/2+y,-z
-x,-y,-z
loop_
_atom_site_label
_atom_site_fract_x
_atom_site_fract_y
_atom_site_fract_z
_atom_site_occupancy
_atom_site_U_iso_or_equiv
Ca 0.23110 0.41860 0.25190 1.00000 0.02600
Ti 0.50610 0.25100 0.73540 1.00000 0.02800
Ge 0.73500 0.43180 0.24680 0.09600 0.01600
Si 0.73500 0.43180 0.24680 0.90300 0.01600
O1 0.75030 0.32140 0.78260 1.00000 0.00500
O2A 0.87860 0.32190 0.44540 1.00000 0.00500
O2B 0.07140 0.20340 0.06700 1.00000 0.00500
O3A 0.36800 0.47720 0.65930 1.00000 0.00500
O3B 0.59930 0.04610 0.85300 1.00000 0.00500
