#------------------------------------------------------------------------------
#$Date: 2016-02-16 14:49:47 +0200 (Tue, 16 Feb 2016) $
#$Revision: 176465 $
#$URL: svn://www.crystallography.net/cod/cif/9/00/38/9003842.cif $
#------------------------------------------------------------------------------
#
# This file is available in the Crystallography Open Database (COD),
# http://www.crystallography.net/. The original data for this entry
# were provided the American Mineralogist Crystal Structure Database,
# http://rruff.geo.arizona.edu/AMS/amcsd.php
#
# The file may be used within the scientific community so long as
# proper attribution is given to the journal article from which the
# data were obtained.
#
data_9003842
loop_
_publ_author_name
'Domeneghetti, M. C.'
'Zema, M.'
'Tazzoli, V.'
_publ_section_title
;
 Kinetics of Fe2+-Mg order-disorder in P2_1/c pigeonite
 Locality: Parana, Brazil
 Sample: N.35, annealed at T = 700 C for t = 50 min
;
_journal_name_full               'American Mineralogist'
_journal_page_first              1816
_journal_page_last               1823
_journal_paper_doi               10.2138/am.2005.1773
_journal_volume                  90
_journal_year                    2005
_chemical_formula_sum
'Al0.016 Ca0.191 Fe0.847 Mg0.919 Mn0.029 Na0.003 O6 Si1.984 Ti0.01'
_chemical_name_mineral           Pigeonite
_space_group_IT_number           14
_symmetry_space_group_name_Hall  '-P 2ybc'
_symmetry_space_group_name_H-M   'P 1 21/c 1'
_cell_angle_alpha                90
_cell_angle_beta                 108.475
_cell_angle_gamma                90
_cell_length_a                   9.7114
_cell_length_b                   8.9473
_cell_length_c                   5.2513
_cell_volume                     432.773
_exptl_crystal_density_diffrn    3.555
_exptl_crystal_thermal_history   'annealed at T = 700 C for t = 50 min'
_cod_original_formula_sum
'Mg.919 Fe.847 Ca.191 Mn.029 Na.003 Ti.01 Si1.984 Al.016 O6'
_cod_database_code               9003842
loop_
_symmetry_equiv_pos_as_xyz
x,y,z
x,1/2-y,1/2+z
-x,1/2+y,1/2-z
-x,-y,-z
loop_
_atom_site_aniso_label
_atom_site_aniso_U_11
_atom_site_aniso_U_22
_atom_site_aniso_U_33
_atom_site_aniso_U_12
_atom_site_aniso_U_13
_atom_site_aniso_U_23
MgM2A 0.00983 0.01026 0.00647 0.00023 0.00067 0.00198
FeM2A 0.00983 0.01026 0.00647 0.00023 0.00067 0.00198
CaM2A 0.00983 0.01026 0.00647 0.00023 0.00067 0.00198
MnM2A 0.00983 0.01026 0.00647 0.00023 0.00067 0.00198
NaM2A 0.00983 0.01026 0.00647 0.00023 0.00067 0.00198
MgM1 0.00789 0.00683 0.00747 0.00022 0.00255 0.00048
Fe2+M1 0.00789 0.00683 0.00747 0.00022 0.00255 0.00048
Fe3+M1 0.00789 0.00683 0.00747 0.00022 0.00255 0.00048
TiM1 0.00789 0.00683 0.00747 0.00022 0.00255 0.00048
MnM1 0.00789 0.00683 0.00747 0.00022 0.00255 0.00048
SiA 0.00595 0.00632 0.00982 -0.00061 0.00335 -0.00057
SiB 0.00636 0.00615 0.00735 -0.00099 0.00271 -0.00094
AlB 0.00636 0.00615 0.00735 -0.00099 0.00271 -0.00094
O1A 0.00651 0.00916 0.00965 0.00026 0.00263 -0.00004
O2A 0.01308 0.00792 0.01410 -0.00326 0.00660 -0.00146
O3A 0.00797 0.02324 0.02060 0.00027 0.00393 0.01440
O1B 0.00719 0.00934 0.00999 0.00046 0.00290 0.00002
O2B 0.01449 0.01160 0.02094 -0.00580 0.01014 -0.00706
O3B 0.00732 0.02046 0.01280 0.00027 0.00309 0.00779
loop_
_atom_site_label
_atom_site_fract_x
_atom_site_fract_y
_atom_site_fract_z
_atom_site_occupancy
_atom_site_U_iso_or_equiv
MgM2A 0.25524 0.01646 0.22775 0.16280 ?
FeM2A 0.25524 0.01646 0.22775 0.61720 ?
CaM2A 0.25524 0.01646 0.22775 0.05040 ?
MnM2A 0.25524 0.01646 0.22775 0.02560 ?
NaM2A 0.25524 0.01646 0.22775 0.00300 ?
CaM2B 0.25381 0.04730 0.24886 0.14090 0.01139
MgM1 0.25041 0.65464 0.23190 0.75650 ?
Fe2+M1 0.25041 0.65464 0.23190 0.21550 ?
Fe3+M1 0.25041 0.65464 0.23190 0.01480 ?
TiM1 0.25041 0.65464 0.23190 0.01010 ?
MnM1 0.25041 0.65464 0.23190 0.00310 ?
SiA 0.04274 0.34055 0.27621 1.00000 ?
SiB 0.54929 0.83747 0.23862 0.98400 ?
AlB 0.54929 0.83747 0.23862 0.01600 ?
O1A 0.86765 0.33814 0.16866 1.00000 ?
O2A 0.12156 0.49957 0.33204 1.00000 ?
O3A 0.10416 0.26121 0.57660 1.00000 ?
O1B 0.37353 0.83661 0.13460 1.00000 ?
O2B 0.62880 0.98783 0.37257 1.00000 ?
O3B 0.60485 0.70912 0.48153 1.00000 ?
