#------------------------------------------------------------------------------
#$Date: 2016-02-16 14:49:47 +0200 (Tue, 16 Feb 2016) $
#$Revision: 176465 $
#$URL: svn://www.crystallography.net/cod/cif/9/00/34/9003428.cif $
#------------------------------------------------------------------------------
#
# This file is available in the Crystallography Open Database (COD),
# http://www.crystallography.net/. The original data for this entry
# were provided the American Mineralogist Crystal Structure Database,
# http://rruff.geo.arizona.edu/AMS/amcsd.php
#
# The file may be used within the scientific community so long as
# proper attribution is given to the journal article from which the
# data were obtained.
#
data_9003428
loop_
_publ_author_name
'Thompson, R. M.'
'Downs, R. T.'
_publ_section_title
;Model pyroxenes II: Structural variation as a function of tetrahedral
 rotation model orthoenstatite at 1360 K after Yang and Ghose (1995) with
 O3A-O3A-O3A angle = 163.0, O3B-O3B-O3B angle = 149.5, and model oxygen radius
 = 1.317
;
_journal_name_full               'American Mineralogist'
_journal_page_first              614
_journal_page_last               628
_journal_volume                  89
_journal_year                    2004
_chemical_formula_sum            'Mg O3 Si'
_chemical_name_mineral           Pyroxene-ideal
_space_group_IT_number           61
_symmetry_space_group_name_Hall  '-P 2ac 2ab'
_symmetry_space_group_name_H-M   'P b c a'
_cell_angle_alpha                90
_cell_angle_beta                 90
_cell_angle_gamma                90
_cell_length_a                   18.535
_cell_length_b                   9.024
_cell_length_c                   5.210
_cell_volume                     871.424
_exptl_crystal_density_diffrn    3.061
_cod_original_formula_sum        'Mg Si O3'
_cod_database_code               9003428
loop_
_symmetry_equiv_pos_as_xyz
x,y,z
x,1/2-y,1/2+z
-x,1/2+y,1/2-z
1/2-x,1/2+y,z
1/2+x,1/2-y,-z
1/2+x,y,1/2-z
1/2-x,-y,1/2+z
-x,-y,-z
loop_
_atom_site_label
_atom_site_fract_x
_atom_site_fract_y
_atom_site_fract_z
Mg 0.37430 0.66667 0.87730
Mg 0.37430 0.50000 0.37730
SiA 0.27900 0.33333 0.08720
SiB 0.47030 0.33333 0.78940
O1A 0.19200 0.33333 0.08720
O2A 0.30800 0.50000 0.04400
O3A 0.30800 0.22840 0.85880
O1B 0.55950 0.33333 0.78940
O2B 0.44050 0.50000 0.71060
O3B 0.44050 0.21060 0.57870
