#------------------------------------------------------------------------------
#$Date: 2016-02-16 14:49:47 +0200 (Tue, 16 Feb 2016) $
#$Revision: 176465 $
#$URL: svn://www.crystallography.net/cod/cif/9/00/43/9004332.cif $
#------------------------------------------------------------------------------
#
# This file is available in the Crystallography Open Database (COD),
# http://www.crystallography.net/. The original data for this entry
# were provided the American Mineralogist Crystal Structure Database,
# http://rruff.geo.arizona.edu/AMS/amcsd.php
#
# The file may be used within the scientific community so long as
# proper attribution is given to the journal article from which the
# data were obtained.
#
data_9004332
loop_
_publ_author_name
'Liang, J.'
'Hawthorne, F. C.'
_publ_section_title
;Characterization of fine-grained mixtures of rock-forming minerals by
 Rietveld structure refinement: olivine + pyroxene Sample: P9 Rietveld, 89.6%
 olivine
;
_journal_name_full               'The Canadian Mineralogist'
_journal_page_first              541
_journal_page_last               552
_journal_volume                  32
_journal_year                    1994
_chemical_formula_sum            'Fe0.198 Mg1.802 O4 Si'
_chemical_name_mineral           Forsterite
_space_group_IT_number           62
_symmetry_space_group_name_Hall  '-P 2c 2ab'
_symmetry_space_group_name_H-M   'P b n m'
_cell_angle_alpha                90
_cell_angle_beta                 90
_cell_angle_gamma                90
_cell_length_a                   4.7660
_cell_length_b                   10.2379
_cell_length_c                   5.9992
_cell_volume                     292.724
_exptl_crystal_density_diffrn    3.334
_cod_original_formula_sum        'Si (Mg1.802 Fe.198) O4'
_cod_database_code               9004332
loop_
_symmetry_equiv_pos_as_xyz
x,y,z
x,y,1/2-z
-x,-y,1/2+z
1/2+x,1/2-y,1/2+z
1/2-x,1/2+y,1/2-z
1/2-x,1/2+y,z
1/2+x,1/2-y,-z
-x,-y,-z
loop_
_atom_site_label
_atom_site_fract_x
_atom_site_fract_y
_atom_site_fract_z
_atom_site_occupancy
_atom_site_U_iso_or_equiv
Si 0.42800 0.09500 0.25000 1.00000 0.00494
MgM1 0.00000 0.00000 0.00000 0.90200 0.00507
FeM1 0.00000 0.00000 0.00000 0.09800 0.00507
MgM2 0.99000 0.27780 0.25000 0.90000 0.00519
FeM2 0.99000 0.27780 0.25000 0.10000 0.00519
O1 0.76800 0.08900 0.25000 1.00000 0.00633
O2 0.21700 0.44600 0.25000 1.00000 0.00608
O3 0.27800 0.16100 0.03200 1.00000 0.00659
