#------------------------------------------------------------------------------
#$Date: 2016-02-16 14:49:47 +0200 (Tue, 16 Feb 2016) $
#$Revision: 176465 $
#$URL: svn://www.crystallography.net/cod/cif/9/00/40/9004023.cif $
#------------------------------------------------------------------------------
#
# This file is available in the Crystallography Open Database (COD),
# http://www.crystallography.net/
#
# All data on this site have been placed in the public domain by the
# contributors.
#
data_9004023
loop_
_publ_author_name
'Bindi L'
'Downs R T'
'Harlow G E'
'Safonov O G'
'Litvin Y A'
'Perchuk L L'
'Uchida H'
'Menchetti S'
_publ_section_title
;
 Compressibility of synthetic potassium-rich clinopyroxene:
 In situ high-pressure single-crystal X-ray study
 Sample: 939-1, in air
;
_journal_name_full               'American Mineralogist'
_journal_page_first              802
_journal_page_last               808
_journal_paper_doi               10.2138/am.2006.2031
_journal_volume                  91
_journal_year                    2006
_chemical_formula_sum            'Al0.19 Ca0.88 K0.12 Mg0.83 O6 Si1.98'
_chemical_name_mineral           Diopside
_space_group_IT_number           15
_symmetry_space_group_name_Hall  '-C 2yc'
_symmetry_space_group_name_H-M   'C 1 2/c 1'
_cell_angle_alpha                90
_cell_angle_beta                 105.990
_cell_angle_gamma                90
_cell_length_a                   9.6912
_cell_length_b                   8.8986
_cell_length_c                   5.2531
_cell_volume                     435.490
_cod_original_formula_sum        '(Ca.88 K.12) Mg.83 Al.19 Si1.98 O6'
_cod_database_code               9004023
loop_
_symmetry_equiv_pos_as_xyz
x,y,z
1/2+x,1/2+y,z
x,-y,1/2+z
1/2+x,1/2-y,1/2+z
-x,y,1/2-z
1/2-x,1/2+y,1/2-z
-x,-y,-z
1/2-x,1/2-y,-z
loop_
_atom_site_label
_atom_site_fract_x
_atom_site_fract_y
_atom_site_fract_z
_atom_site_occupancy
_atom_site_U_iso_or_equiv
Ca2 0.00000 0.30244 0.25000 0.88000 0.01102
K2 0.00000 0.30244 0.25000 0.12000 0.01102
Mg1 0.00000 0.90700 0.25000 0.83000 0.00659
Al1 0.00000 0.90700 0.25000 0.17000 0.00659
Si 0.28611 0.09289 0.22570 0.99000 0.00545
Al 0.28611 0.09289 0.22570 0.01000 0.00545
O1 0.11400 0.08440 0.13820 1.00000 0.01153
O2 0.35960 0.25140 0.31130 1.00000 0.01191
O3 0.35010 0.01650 0.99260 1.00000 0.00849
