#------------------------------------------------------------------------------
#$Date: 2016-02-16 14:49:47 +0200 (Tue, 16 Feb 2016) $
#$Revision: 176465 $
#$URL: svn://www.crystallography.net/cod/cif/9/00/45/9004561.cif $
#------------------------------------------------------------------------------
#
# This file is available in the Crystallography Open Database (COD),
# http://www.crystallography.net/. The original data for this entry
# were provided the American Mineralogist Crystal Structure Database,
# http://rruff.geo.arizona.edu/AMS/amcsd.php
#
# The file may be used within the scientific community so long as
# proper attribution is given to the journal article from which the
# data were obtained.
#
data_9004561
loop_
_publ_author_name
'Sokolova, E. V.'
'Hawthorne, F. C.'
'Kabalov, Y. K.'
'Schneider, J.'
'McCammon, C. A.'
_publ_section_title
;The crystal chemistry of potassic-ferrisadanagaite Locality: contact zone of
 the Ilmen alkaline massif, Ilmen Mountains, southern Urals, Russia
;
_journal_name_full               'The Canadian Mineralogist'
_journal_page_first              669
_journal_page_last               674
_journal_paper_doi               10.2113/gscanmin.38.3.669
_journal_volume                  38
_journal_year                    2000
_chemical_formula_sum
'Al2.14 Ca1.73 Fe3.22 K0.66 Mg0.6 Mn0.25 Na0.55 O24 Si6.64 Ti0.19'
_chemical_name_mineral           Potassic-ferrisadanagaite
_space_group_IT_number           12
_symmetry_space_group_name_Hall  '-C 2y'
_symmetry_space_group_name_H-M   'C 1 2/m 1'
_cell_angle_alpha                90
_cell_angle_beta                 105.19
_cell_angle_gamma                90
_cell_length_a                   9.9309
_cell_length_b                   18.0949
_cell_length_c                   5.3681
_cell_volume                     930.938
_exptl_crystal_density_diffrn    3.401
_cod_original_formula_sum
'Si6.64 Al2.14 Fe3.22 Ti.19 Mg.6 Mn.25 Ca1.73 Na.55 K.66 O24'
_cod_database_code               9004561
loop_
_symmetry_equiv_pos_as_xyz
x,y,z
1/2+x,1/2+y,z
x,-y,z
1/2+x,1/2-y,z
-x,y,-z
1/2-x,1/2+y,-z
-x,-y,-z
1/2-x,1/2-y,-z
loop_
_atom_site_label
_atom_site_fract_x
_atom_site_fract_y
_atom_site_fract_z
_atom_site_occupancy
_atom_site_U_iso_or_equiv
Si1 0.28130 0.08700 0.31170 0.73000 0.01013
Al1 0.28130 0.08700 0.31170 0.27000 0.01013
Si2 0.28970 0.17400 0.81440 0.93000 0.00887
Al2 0.28970 0.17400 0.81440 0.07000 0.00887
Fe1 0.00000 0.09100 0.50000 0.65000 0.00127
Ti1 0.00000 0.09100 0.50000 0.09500 0.00127
Mg1 0.00000 0.09100 0.50000 0.25500 0.00127
Al2 0.00000 0.18000 0.00000 0.39000 0.00253
Fe2 0.00000 0.18000 0.00000 0.61000 0.00253
Fe3 0.00000 0.00000 0.00000 0.70000 0.00253
Mn3 0.00000 0.00000 0.00000 0.21000 0.00253
Mg3 0.00000 0.00000 0.00000 0.09000 0.00253
Mn4 0.00000 0.28300 0.50000 0.02000 0.00127
Ca4 0.00000 0.28300 0.50000 0.86500 0.00127
Na4 0.00000 0.28300 0.50000 0.11500 0.00127
NaA 0.00000 0.50000 0.00000 0.32000 0.06966
KA 0.00000 0.50000 0.00000 0.66000 0.06966
O1 0.10350 0.09300 0.21080 1.00000 0.00253
O2 0.11840 0.17600 0.73800 1.00000 0.00887
O3 0.10340 0.00000 0.70380 1.00000 0.01140
O4 0.37080 0.25000 0.79390 1.00000 0.00127
O5 0.35000 0.14000 0.11610 1.00000 0.01393
O6 0.34140 0.11800 0.61090 1.00000 0.00507
O7 0.34040 0.00000 0.29400 1.00000 0.00760
