#------------------------------------------------------------------------------
#$Date: 2016-02-16 14:49:47 +0200 (Tue, 16 Feb 2016) $
#$Revision: 176465 $
#$URL: svn://www.crystallography.net/cod/cif/9/00/40/9004085.cif $
#------------------------------------------------------------------------------
#
# This file is available in the Crystallography Open Database (COD),
# http://www.crystallography.net/. The original data for this entry
# were provided the American Mineralogist Crystal Structure Database,
# http://rruff.geo.arizona.edu/AMS/amcsd.php
#
# The file may be used within the scientific community so long as
# proper attribution is given to the journal article from which the
# data were obtained.
#
data_9004085
loop_
_publ_author_name
'Curtis, L.'
'Gittins, J.'
'Kocman, V.'
'Rucklidge, J. C.'
'Hawthorne, F. C.'
'Ferguson, R. B.'
_publ_section_title
;
 Two crystal structure refinements of a P2/n titanian ferro-omphacite
 Sample: Winnipeg
;
_journal_name_full               'The Canadian Mineralogist'
_journal_page_first              62
_journal_page_last               67
_journal_volume                  13
_journal_year                    1975
_chemical_formula_sum            'Al0.481 Ca0.466 Fe0.518 Na0.534 O6 Si2'
_chemical_name_mineral           Omphacite
_space_group_IT_number           13
_symmetry_space_group_name_Hall  '-P 2yac'
_symmetry_space_group_name_H-M   'P 1 2/n 1'
_cell_angle_alpha                90
_cell_angle_beta                 106.92
_cell_angle_gamma                90
_cell_length_a                   9.622
_cell_length_b                   8.826
_cell_length_c                   5.279
_cell_volume                     428.906
_exptl_crystal_density_diffrn    3.485
_cod_original_formula_sum        '(Fe.518 Al.481) (Ca.466 Na.534) Si2 O6'
_cod_database_code               9004085
loop_
_symmetry_equiv_pos_as_xyz
x,y,z
1/2-x,y,1/2-z
1/2+x,-y,1/2+z
-x,-y,-z
loop_
_atom_site_aniso_label
_atom_site_aniso_U_11
_atom_site_aniso_U_22
_atom_site_aniso_U_33
_atom_site_aniso_U_12
_atom_site_aniso_U_13
_atom_site_aniso_U_23
FeM1 0.00730 0.00829 0.00685 0.00000 0.00118 0.00000
AlM1 0.00730 0.00829 0.00685 0.00000 0.00118 0.00000
FeM11 0.00558 0.00631 0.00491 0.00000 0.00188 0.00000
AlM11 0.00558 0.00631 0.00491 0.00000 0.00188 0.00000
CaM2 0.02232 0.01381 0.01370 0.00000 0.00118 0.00000
NaM2 0.02232 0.01381 0.01370 0.00000 0.00118 0.00000
CaM21 0.01932 0.01302 0.01228 0.00000 -0.00071 0.00000
NaM21 0.01932 0.01302 0.01228 0.00000 -0.00071 0.00000
Si1 0.00644 0.00789 0.00594 0.00000 0.00259 0.00023
Si2 0.00730 0.00710 0.00452 0.00041 0.00236 0.00023
O11 0.00730 0.01184 0.00685 -0.00041 0.00283 -0.00023
O12 0.00515 0.01184 0.00788 -0.00123 0.00283 -0.00068
O21 0.00944 0.00750 0.00995 -0.00123 0.00165 -0.00090
O22 0.01417 0.00868 0.01150 0.00329 0.00448 0.00158
O31 0.00773 0.01066 0.00866 0.00123 0.00236 -0.00271
O32 0.00859 0.01066 0.00426 -0.00041 0.00400 0.00181
loop_
_atom_site_label
_atom_site_fract_x
_atom_site_fract_y
_atom_site_fract_z
_atom_site_occupancy
FeM1 0.75000 0.65600 0.25000 0.78600
AlM1 0.75000 0.65600 0.25000 0.21400
FeM11 0.75000 0.84990 0.75000 0.25100
AlM11 0.75000 0.84990 0.75000 0.74900
CaM2 0.75000 0.05200 0.25000 0.26000
NaM2 0.75000 0.05200 0.25000 0.74000
CaM21 0.75000 0.45260 0.75000 0.67200
NaM21 0.75000 0.45260 0.75000 0.32800
Si1 0.04020 0.84640 0.23050 1.00000
Si2 0.03820 0.66470 0.73530 1.00000
O11 0.86460 0.84000 0.12270 1.00000
O12 0.86320 0.67980 0.65590 1.00000
O21 0.11560 0.00880 0.30880 1.00000
O22 0.10410 0.50020 0.80580 1.00000
O31 0.10720 0.76610 0.01020 1.00000
O32 0.09720 0.74280 0.50240 1.00000
