#------------------------------------------------------------------------------
#$Date: 2016-02-16 14:49:47 +0200 (Tue, 16 Feb 2016) $
#$Revision: 176465 $
#$URL: svn://www.crystallography.net/cod/cif/9/00/53/9005370.cif $
#------------------------------------------------------------------------------
#
# This file is available in the Crystallography Open Database (COD),
# http://www.crystallography.net/. The original data for this entry
# were provided the American Mineralogist Crystal Structure Database,
# http://rruff.geo.arizona.edu/AMS/amcsd.php
#
# The file may be used within the scientific community so long as
# proper attribution is given to the journal article from which the
# data were obtained.
#
data_9005370
loop_
_publ_author_name
'Armbruster, T.'
'Birrer, J.'
'Libowitzky, E.'
'Beran, A.'
_publ_section_title
;
 Crystal chemistry of Ti-bearing andradites
 Note: sample KB166
 Locality: Baden-Wurtemburg, Germany
;
_journal_name_full               'European Journal of Mineralogy'
_journal_page_first              907
_journal_page_last               921
_journal_volume                  10
_journal_year                    1998
_chemical_formula_sum
;Al0.222 Ca2.864 Fe1.426 Mg0.112 Mn0.025 Na0.019 Ni0.002 O12 Si2.358 Ti0.827
 V0.144
;
_chemical_name_mineral           Andradite
_space_group_IT_number           230
_symmetry_space_group_name_Hall  '-I 4bd 2c 3'
_symmetry_space_group_name_H-M   'I a -3 d'
_cell_angle_alpha                90
_cell_angle_beta                 90
_cell_angle_gamma                90
_cell_length_a                   12.122
_cell_length_b                   12.122
_cell_length_c                   12.122
_cell_volume                     1781.242
_exptl_crystal_density_diffrn    3.805
_cod_original_cell_volume        1781.241
_cod_original_formula_sum
'Ca2.864 Mn.025 Na.019 Ni.002 Mg.112 Al.222 V.144 Ti.827 Fe1.426 Si2.358 O12'
_cod_database_code               9005370
loop_
_symmetry_equiv_pos_as_xyz
x,y,z
1/2+x,1/2+y,1/2+z
z,1/2-x,1/2+y
1/2+z,-x,+y
-y,1/2+z,1/2-x
1/2-y,+z,-x
x,1/2-y,1/2+z
1/2+x,-y,+z
-z,1/2+x,1/2-y
1/2-z,+x,-y
y,1/2-z,1/2+x
1/2+y,-z,+x
-x,1/2+y,1/2-z
1/2-x,+y,-z
3/4+x,1/4-z,3/4-y
1/4+x,3/4-z,1/4-y
3/4-z,1/4+y,3/4+x
1/4-z,3/4+y,1/4+x
3/4+y,1/4-x,3/4-z
1/4+y,3/4-x,1/4-z
3/4-x,1/4+z,3/4+y
1/4-x,3/4+z,1/4+y
3/4+z,1/4-y,3/4-x
1/4+z,3/4-y,1/4-x
3/4-y,1/4+x,3/4+z
1/4-y,3/4+x,1/4+z
1/4+x,1/4+z,1/4+y
3/4+x,3/4+z,3/4+y
1/4-z,1/4-y,1/4-x
3/4-z,3/4-y,3/4-x
1/4+y,1/4+x,1/4+z
3/4+y,3/4+x,3/4+z
1/4-x,1/4-z,1/4-y
3/4-x,3/4-z,3/4-y
1/4+z,1/4+y,1/4+x
3/4+z,3/4+y,3/4+x
1/4-y,1/4-x,1/4-z
3/4-y,3/4-x,3/4-z
1/2+z,x,1/2-y
+z,1/2+x,-y
1/2-y,-z,1/2+x
-y,1/2-z,+x
1/2+x,y,1/2-z
+x,1/2+y,-z
1/2-z,-x,1/2+y
-z,1/2-x,+y
1/2+y,z,1/2-x
+y,1/2+z,-x
1/2-x,-y,1/2+z
-x,1/2-y,+z
1/2-z,1/2+x,y
-z,+x,1/2+y
1/2+y,1/2-z,-x
+y,-z,1/2-x
1/2-x,1/2+y,z
-x,+y,1/2+z
1/2+z,1/2-x,-y
+z,-x,1/2-y
1/2-y,1/2+z,x
-y,+z,1/2+x
1/2+x,1/2-y,-z
+x,-y,1/2-z
3/4-x,3/4+z,1/4-y
1/4-x,1/4+z,3/4-y
3/4+z,3/4-y,1/4+x
1/4+z,1/4-y,3/4+x
3/4-y,3/4+x,1/4-z
1/4-y,1/4+x,3/4-z
3/4+x,3/4-z,1/4+y
1/4+x,1/4-z,3/4+y
3/4-z,3/4+y,1/4-x
1/4-z,1/4+y,3/4-x
3/4+y,3/4-x,1/4+z
1/4+y,1/4-x,3/4+z
1/4-x,3/4-z,3/4+y
3/4-x,1/4-z,1/4+y
1/4+z,3/4+y,3/4-x
3/4+z,1/4+y,1/4-x
1/4-y,3/4-x,3/4+z
3/4-y,1/4-x,1/4+z
1/4+x,3/4+z,3/4-y
3/4+x,1/4+z,1/4-y
1/4-z,3/4-y,3/4+x
3/4-z,1/4-y,1/4+x
1/4+y,3/4+x,3/4-z
3/4+y,1/4+x,1/4-z
-z,-x,-y
1/2-z,1/2-x,1/2-y
y,z,x
1/2+y,1/2+z,1/2+x
-x,-y,-z
1/2-x,1/2-y,1/2-z
z,x,y
1/2+z,1/2+x,1/2+y
-y,-z,-x
1/2-y,1/2-z,1/2-x
loop_
_atom_site_aniso_label
_atom_site_aniso_U_11
_atom_site_aniso_U_22
_atom_site_aniso_U_33
_atom_site_aniso_U_12
_atom_site_aniso_U_13
_atom_site_aniso_U_23
CaX 0.01160 0.01160 0.00710 0.00310 0.00000 0.00000
MnX 0.01160 0.01160 0.00710 0.00310 0.00000 0.00000
NaX 0.01160 0.01160 0.00710 0.00310 0.00000 0.00000
NiX 0.01160 0.01160 0.00710 0.00310 0.00000 0.00000
KX 0.01160 0.01160 0.00710 0.00310 0.00000 0.00000
MgX 0.01160 0.01160 0.00710 0.00310 0.00000 0.00000
MgY 0.00810 0.00810 0.00810 0.00030 0.00030 0.00030
AlY 0.00810 0.00810 0.00810 0.00030 0.00030 0.00030
VY 0.00810 0.00810 0.00810 0.00030 0.00030 0.00030
TiY 0.00810 0.00810 0.00810 0.00030 0.00030 0.00030
FeY 0.00810 0.00810 0.00810 0.00030 0.00030 0.00030
SiZ 0.00740 0.00830 0.00830 0.00000 0.00000 0.00000
TiZ 0.00740 0.00830 0.00830 0.00000 0.00000 0.00000
FeZ 0.00740 0.00830 0.00830 0.00000 0.00000 0.00000
O 0.01460 0.01060 0.01040 -0.00180 0.00260 -0.00030
loop_
_atom_site_label
_atom_site_fract_x
_atom_site_fract_y
_atom_site_fract_z
_atom_site_occupancy
_atom_site_U_iso_or_equiv
CaX 0.00000 0.25000 0.12500 0.95470 0.01010
MnX 0.00000 0.25000 0.12500 0.00830 0.01010
NaX 0.00000 0.25000 0.12500 0.00630 0.01010
NiX 0.00000 0.25000 0.12500 0.00070 0.01010
KX 0.00000 0.25000 0.12500 0.00030 0.01010
MgX 0.00000 0.25000 0.12500 0.02970 0.01010
MgY 0.00000 0.00000 0.00000 0.01150 0.00809
AlY 0.00000 0.00000 0.00000 0.11100 0.00809
VY 0.00000 0.00000 0.00000 0.07200 0.00809
TiY 0.00000 0.00000 0.00000 0.31000 0.00809
FeY 0.00000 0.00000 0.00000 0.49550 0.00809
SiZ 0.37500 0.00000 0.25000 0.78600 0.00800
TiZ 0.37500 0.00000 0.25000 0.06900 0.00800
FeZ 0.37500 0.00000 0.25000 0.14500 0.00800
O 0.03800 0.04804 0.65369 1.00000 0.01180
