#------------------------------------------------------------------------------
#$Date: 2017-10-14 23:18:49 +0300 (Sat, 14 Oct 2017) $
#$Revision: 202019 $
#$URL: file:///home/coder/svn-repositories/cod/cif/9/00/58/9005853.cif $
#------------------------------------------------------------------------------
#
# This file is available in the Crystallography Open Database (COD),
# http://www.crystallography.net/. The original data for this entry
# were provided the American Mineralogist Crystal Structure Database,
# http://rruff.geo.arizona.edu/AMS/amcsd.php
#
# The file may be used within the scientific community so long as
# proper attribution is given to the journal article from which the
# data were obtained.
#
data_9005853
loop_
_publ_author_name
'Spackman, M. A.'
'Hill, R. J.'
'Gibbs, G. V.'
_publ_section_title
;
 Exploration of structure and bonding in stishovite with Fourier and
 Pseudoaton Refinement methods using single crystal and powder
 X-ray diffraction data
 Sample: ION
;
_journal_name_full               'Physics and Chemistry of Minerals'
_journal_page_first              139
_journal_page_last               150
_journal_paper_doi               10.1007/BF00308217
_journal_volume                  14
_journal_year                    1987
_chemical_formula_sum            'O2 Si'
_chemical_name_mineral           Stishovite
_space_group_IT_number           136
_symmetry_space_group_name_Hall  '-P 4n 2n'
_symmetry_space_group_name_H-M   'P 42/m n m'
_cell_angle_alpha                90
_cell_angle_beta                 90
_cell_angle_gamma                90
_cell_length_a                   4.1773
_cell_length_b                   4.1773
_cell_length_c                   2.6655
_cell_volume                     46.513
_database_code_amcsd             0007435
_exptl_crystal_density_diffrn    4.290
_cod_original_formula_sum        'Si O2'
_cod_database_code               9005853
loop_
_symmetry_equiv_pos_as_xyz
x,y,z
-y,-x,z
y,x,-z
1/2+y,1/2-x,1/2-z
1/2-y,1/2+x,1/2+z
1/2+x,1/2-y,1/2+z
1/2-x,1/2+y,1/2-z
x,y,-z
-x,-y,z
y,x,z
-y,-x,-z
1/2-y,1/2+x,1/2-z
1/2+y,1/2-x,1/2+z
1/2-x,1/2+y,1/2+z
1/2+x,1/2-y,1/2-z
-x,-y,-z
loop_
_atom_site_aniso_label
_atom_site_aniso_U_11
_atom_site_aniso_U_22
_atom_site_aniso_U_33
_atom_site_aniso_U_12
_atom_site_aniso_U_13
_atom_site_aniso_U_23
Si 0.00242 0.00242 0.00185 0.00018 0.00000 0.00000
O 0.00316 0.00316 0.00237 -0.00100 0.00000 0.00000
loop_
_atom_site_label
_atom_site_fract_x
_atom_site_fract_y
_atom_site_fract_z
Si 0.00000 0.00000 0.00000
O 0.30615 0.30615 0.00000
loop_
_cod_related_entry_id
_cod_related_entry_database
_cod_related_entry_code
1 AMCSD 0007435
2 ChemSpider 21241293
