#------------------------------------------------------------------------------
#$Date: 2016-02-16 14:49:47 +0200 (Tue, 16 Feb 2016) $
#$Revision: 176465 $
#$URL: svn://www.crystallography.net/cod/cif/9/00/54/9005433.cif $
#------------------------------------------------------------------------------
#
# This file is available in the Crystallography Open Database (COD),
# http://www.crystallography.net/. The original data for this entry
# were provided the American Mineralogist Crystal Structure Database,
# http://rruff.geo.arizona.edu/AMS/amcsd.php
#
# The file may be used within the scientific community so long as
# proper attribution is given to the journal article from which the
# data were obtained.
#
data_9005433
loop_
_publ_author_name
'Redhammer, G. J.'
'Amthauer, G.'
'Lottermoser, W.'
'Treutmann, W.'
_publ_section_title
;
 Synthesis and structural properties of clinopyroxenes of the
 hedenbergite CaFeSi2O6 - aegirine NaFeSi2O6 solid-solution series
 Sample: ae40/20
;
_journal_name_full               'European Journal of Mineralogy'
_journal_page_first              105
_journal_page_last               120
_journal_volume                  12
_journal_year                    2000
_chemical_formula_sum            'Ca0.6 Fe Na0.4 O6 Si2'
_chemical_name_mineral           Hedenbergite
_space_group_IT_number           15
_symmetry_space_group_name_Hall  '-C 2yc'
_symmetry_space_group_name_H-M   'C 1 2/c 1'
_cell_angle_alpha                90
_cell_angle_beta                 106.041
_cell_angle_gamma                90
_cell_length_a                   9.7598
_cell_length_b                   8.9277
_cell_length_c                   5.2748
_cell_volume                     441.712
_exptl_crystal_density_diffrn    3.628
_cod_original_formula_sum        '(Na.4 Ca.6) Fe Si2 O6'
_cod_database_code               9005433
loop_
_symmetry_equiv_pos_as_xyz
x,y,z
1/2+x,1/2+y,z
x,-y,1/2+z
1/2+x,1/2-y,1/2+z
-x,y,1/2-z
1/2-x,1/2+y,1/2-z
-x,-y,-z
1/2-x,1/2-y,-z
loop_
_atom_site_label
_atom_site_fract_x
_atom_site_fract_y
_atom_site_fract_z
_atom_site_occupancy
_atom_site_U_iso_or_equiv
NaM2 0.00000 0.29840 0.25000 0.40000 0.00621
CaM2 0.00000 0.29840 0.25000 0.60000 0.00621
FeM1 0.00000 0.90170 0.25000 1.00000 0.00595
SiT 0.28830 0.08850 0.23500 1.00000 0.00038
O1 0.11940 0.08560 0.14800 1.00000 0.01292
O2 0.35860 0.24830 0.31970 1.00000 0.01165
O3 0.35250 0.01340 0.00180 1.00000 0.00190
