#------------------------------------------------------------------------------
#$Date: 2014-07-12 11:06:43 +0300 (Sat, 12 Jul 2014) $
#$Revision: 120115 $
#$URL: svn://www.crystallography.net/cod/cif/9/00/58/9005861.cif $
#------------------------------------------------------------------------------
#
# This file is available in the Crystallography Open Database (COD),
# http://www.crystallography.net/. The original data for this entry
# were provided the American Mineralogist Crystal Structure Database,
# http://rruff.geo.arizona.edu/AMS/amcsd.php
#
# The file may be used within the scientific community so long as
# proper attribution is given to the journal article from which the
# data were obtained.
#
data_9005861
loop_
_publ_author_name
'Hazen, R. M.'
'Finger, L. W.'
_publ_section_title
;
 High-temperature crystal chemistry of phenakite (Be2SiO4) and
 Chrysoberyl (BeAl2O4)
 Sample: T = 25 C
;
_journal_name_full               'Physics and Chemistry of Minerals'
_journal_page_first              426
_journal_page_last               434
_journal_volume                  14
_journal_year                    1987
_chemical_formula_sum            'Al2 Be O4'
_chemical_name_mineral           Chrysoberyl
_space_group_IT_number           62
_symmetry_space_group_name_Hall  '-P 2c 2ab'
_symmetry_space_group_name_H-M   'P b n m'
_cell_angle_alpha                90
_cell_angle_beta                 90
_cell_angle_gamma                90
_cell_length_a                   4.424
_cell_length_b                   9.396
_cell_length_c                   5.471
_cell_volume                     227.418
_diffrn_ambient_temperature      298.15
_exptl_crystal_density_diffrn    3.708
_cod_database_code               9005861
loop_
_symmetry_equiv_pos_as_xyz
x,y,z
x,y,1/2-z
-x,-y,1/2+z
1/2+x,1/2-y,1/2+z
1/2-x,1/2+y,1/2-z
1/2-x,1/2+y,z
1/2+x,1/2-y,-z
-x,-y,-z
loop_
_atom_site_label
_atom_site_fract_x
_atom_site_fract_y
_atom_site_fract_z
_atom_site_U_iso_or_equiv
Al1 0.00000 0.00000 0.00000 0.00405
Al2 0.99490 0.27306 0.25000 0.00253
Be 0.43330 0.09290 0.25000 0.00557
O1 0.78740 0.09010 0.25000 0.00443
O2 0.24220 0.43300 0.25000 0.00456
O3 0.25680 0.16310 0.01540 0.00481
_journal_paper_doi 10.1007/BF00628819
