#------------------------------------------------------------------------------
#$Date: 2016-02-16 14:49:47 +0200 (Tue, 16 Feb 2016) $
#$Revision: 176465 $
#$URL: svn://www.crystallography.net/cod/cif/9/00/54/9005435.cif $
#------------------------------------------------------------------------------
#
# This file is available in the Crystallography Open Database (COD),
# http://www.crystallography.net/. The original data for this entry
# were provided the American Mineralogist Crystal Structure Database,
# http://rruff.geo.arizona.edu/AMS/amcsd.php
#
# The file may be used within the scientific community so long as
# proper attribution is given to the journal article from which the
# data were obtained.
#
data_9005435
loop_
_publ_author_name
'Redhammer, G. J.'
'Amthauer, G.'
'Lottermoser, W.'
'Treutmann, W.'
_publ_section_title
;
 Synthesis and structural properties of clinopyroxenes of the
 hedenbergite CaFeSi2O6 - aegirine NaFeSi2O6 solid-solution series
 Sample: ae60/1
;
_journal_name_full               'European Journal of Mineralogy'
_journal_page_first              105
_journal_page_last               120
_journal_volume                  12
_journal_year                    2000
_chemical_formula_sum            'Ca0.4 Fe Na0.6 O6 Si2'
_chemical_name_mineral           Aegirine
_space_group_IT_number           15
_symmetry_space_group_name_Hall  '-C 2yc'
_symmetry_space_group_name_H-M   'C 1 2/c 1'
_cell_angle_alpha                90
_cell_angle_beta                 106.598
_cell_angle_gamma                90
_cell_length_a                   9.7189
_cell_length_b                   8.8818
_cell_length_c                   5.2835
_cell_volume                     437.075
_exptl_crystal_density_diffrn    3.614
_cod_original_formula_sum        '(Na.6 Ca.4) Fe Si2 O6'
_cod_database_code               9005435
loop_
_symmetry_equiv_pos_as_xyz
x,y,z
1/2+x,1/2+y,z
x,-y,1/2+z
1/2+x,1/2-y,1/2+z
-x,y,1/2-z
1/2-x,1/2+y,1/2-z
-x,-y,-z
1/2-x,1/2-y,-z
loop_
_atom_site_label
_atom_site_fract_x
_atom_site_fract_y
_atom_site_fract_z
_atom_site_occupancy
_atom_site_U_iso_or_equiv
NaM2 0.00000 0.29820 0.25000 0.60000 0.00836
CaM2 0.00000 0.29820 0.25000 0.40000 0.00836
FeM1 0.00000 0.90130 0.25000 1.00000 0.00557
SiT 0.28930 0.08950 0.23680 1.00000 0.00494
O1 0.11820 0.08510 0.14690 1.00000 0.00735
O2 0.36130 0.25000 0.31270 1.00000 0.00975
O3 0.34960 0.01340 0.00490 1.00000 0.00823
