#------------------------------------------------------------------------------
#$Date: 2016-02-16 14:49:47 +0200 (Tue, 16 Feb 2016) $
#$Revision: 176465 $
#$URL: svn://www.crystallography.net/cod/cif/9/00/58/9005857.cif $
#------------------------------------------------------------------------------
#
# This file is available in the Crystallography Open Database (COD),
# http://www.crystallography.net/. The original data for this entry
# were provided the American Mineralogist Crystal Structure Database,
# http://rruff.geo.arizona.edu/AMS/amcsd.php
#
# The file may be used within the scientific community so long as
# proper attribution is given to the journal article from which the
# data were obtained.
#
data_9005857
loop_
_publ_author_name
'Hazen, R. M.'
'Finger, L. W.'
_publ_section_title
;
 High-temperature crystal chemistry of phenakite (Be2SiO4) and
 Chrysoberyl (BeAl2O4)
 Sample: T = 25 C
;
_journal_name_full               'Physics and Chemistry of Minerals'
_journal_page_first              426
_journal_page_last               434
_journal_paper_doi               10.1007/BF00628819
_journal_volume                  14
_journal_year                    1987
_chemical_formula_sum            'Be2 O4 Si'
_chemical_name_mineral           Phenakite
_space_group_IT_number           148
_symmetry_space_group_name_Hall  '-R 3'
_symmetry_space_group_name_H-M   'R -3 :H'
_cell_angle_alpha                90
_cell_angle_beta                 90
_cell_angle_gamma                120
_cell_length_a                   12.4376
_cell_length_b                   12.4376
_cell_length_c                   8.2312
_cell_volume                     1102.724
_diffrn_ambient_temperature      298.15
_exptl_crystal_density_diffrn    2.984
_cod_original_sg_symbol_H-M      'R -3'
_cod_original_formula_sum        'Be2 Si O4'
_cod_database_code               9005857
loop_
_symmetry_equiv_pos_as_xyz
x,y,z
2/3+x,1/3+y,1/3+z
1/3+x,2/3+y,2/3+z
y,-x+y,-z
2/3+y,1/3-x+y,1/3-z
1/3+y,2/3-x+y,2/3-z
-x+y,-x,z
2/3-x+y,1/3-x,1/3+z
1/3-x+y,2/3-x,2/3+z
-x,-y,-z
2/3-x,1/3-y,1/3-z
1/3-x,2/3-y,2/3-z
-y,x-y,z
2/3-y,1/3+x-y,1/3+z
1/3-y,2/3+x-y,2/3+z
x-y,x,-z
2/3+x-y,1/3+x,1/3-z
1/3+x-y,2/3+x,2/3-z
loop_
_atom_site_label
_atom_site_fract_x
_atom_site_fract_y
_atom_site_fract_z
_atom_site_U_iso_or_equiv
Be1 0.19403 0.21011 0.41557 0.00545
Be2 0.19456 0.21201 0.08466 0.00659
Si 0.19553 0.21167 0.74982 0.00291
O1 0.20943 0.08840 0.75061 0.00532
O2 0.33352 0.33293 0.74989 0.00456
O3 0.12217 0.20972 0.91520 0.00469
O4 0.12242 0.20928 0.58542 0.00507
