#------------------------------------------------------------------------------
#$Date: 2016-02-16 14:49:47 +0200 (Tue, 16 Feb 2016) $
#$Revision: 176465 $
#$URL: svn://www.crystallography.net/cod/cif/9/00/53/9005340.cif $
#------------------------------------------------------------------------------
#
# This file is available in the Crystallography Open Database (COD),
# http://www.crystallography.net/. The original data for this entry
# were provided the American Mineralogist Crystal Structure Database,
# http://rruff.geo.arizona.edu/AMS/amcsd.php
#
# The file may be used within the scientific community so long as
# proper attribution is given to the journal article from which the
# data were obtained.
#
data_9005340
loop_
_publ_author_name
'Redhammer, G. J.'
_publ_section_title
;
 Mossbauer spectroscopy and Rietveld refinement on synthetic
 ferri-Tschermak's molecule CaFe3+(Fe3+Si)O6 substituted diopside
 Sample: fts40/#1
;
_journal_name_full               'European Journal of Mineralogy'
_journal_page_first              439
_journal_page_last               452
_journal_volume                  10
_journal_year                    1998
_chemical_formula_sum            'Ca Fe0.759 Mg0.641 O6 Si1.2'
_chemical_name_mineral           Diopside-subsilisic
_space_group_IT_number           15
_symmetry_space_group_name_Hall  '-C 2yc'
_symmetry_space_group_name_H-M   'C 1 2/c 1'
_cell_angle_alpha                90
_cell_angle_beta                 105.856
_cell_angle_gamma                90
_cell_length_a                   9.8007
_cell_length_b                   8.9002
_cell_length_c                   5.3214
_cell_volume                     446.515
_exptl_crystal_density_diffrn    3.388
_cod_original_formula_sum        'Ca Mg.641 Fe.759 Si1.2 O6'
_cod_database_code               9005340
loop_
_symmetry_equiv_pos_as_xyz
x,y,z
1/2+x,1/2+y,z
x,-y,1/2+z
1/2+x,1/2-y,1/2+z
-x,y,1/2-z
1/2-x,1/2+y,1/2-z
-x,-y,-z
1/2-x,1/2-y,-z
loop_
_atom_site_label
_atom_site_fract_x
_atom_site_fract_y
_atom_site_fract_z
_atom_site_occupancy
_atom_site_U_iso_or_equiv
CaM2 0.00000 0.30380 0.25000 1.00000 0.00519
MgM1 0.00000 0.90670 0.25000 0.64100 0.01178
FeM1 0.00000 0.90670 0.25000 0.35900 0.01178
SiT 0.28660 0.09390 0.22600 0.60000 0.00545
FeT 0.28660 0.09390 0.22600 0.20000 0.00545
O1 0.11590 0.08910 0.14020 1.00000 0.00887
O2 0.36390 0.25460 0.31860 1.00000 0.01013
O3 0.35300 0.02290 0.99530 1.00000 0.01393
