#------------------------------------------------------------------------------
#$Date: 2016-02-16 14:49:47 +0200 (Tue, 16 Feb 2016) $
#$Revision: 176465 $
#$URL: svn://www.crystallography.net/cod/cif/9/00/59/9005920.cif $
#------------------------------------------------------------------------------
#
# This file is available in the Crystallography Open Database (COD),
# http://www.crystallography.net/. The original data for this entry
# were provided the American Mineralogist Crystal Structure Database,
# http://rruff.geo.arizona.edu/AMS/amcsd.php
#
# The file may be used within the scientific community so long as
# proper attribution is given to the journal article from which the
# data were obtained.
#
data_9005920
loop_
_publ_author_name
'Ottonello, G.'
'Princivalle, F.'
'Della Giusta, A.'
_publ_section_title
;
 Temperature, composition, and fO2 effects on intersite
 distribution of Mg and Fe2+ in olivines
 Sample: 3263d
;
_journal_name_full               'Physics and Chemistry of Minerals'
_journal_page_first              301
_journal_page_last               312
_journal_volume                  17
_journal_year                    1990
_chemical_formula_sum
'Ca0.007 Fe0.164 Mg1.817 Mn0.003 Ni0.01 O4 Si'
_chemical_name_mineral           Olivine
_space_group_IT_number           62
_symmetry_space_group_name_Hall  '-P 2c 2ab'
_symmetry_space_group_name_H-M   'P b n m'
_cell_angle_alpha                90
_cell_angle_beta                 90
_cell_angle_gamma                90
_cell_length_a                   4.7620
_cell_length_b                   10.2207
_cell_length_c                   5.9907
_cell_volume                     291.573
_exptl_crystal_density_diffrn    3.336
_cod_original_formula_sum        'Mg1.817 Fe.164 Ni.01 Mn.003 Ca.007 Si O4'
_cod_database_code               9005920
loop_
_symmetry_equiv_pos_as_xyz
x,y,z
x,y,1/2-z
-x,-y,1/2+z
1/2+x,1/2-y,1/2+z
1/2-x,1/2+y,1/2-z
1/2-x,1/2+y,z
1/2+x,1/2-y,-z
-x,-y,-z
loop_
_atom_site_label
_atom_site_fract_x
_atom_site_fract_y
_atom_site_fract_z
_atom_site_occupancy
_atom_site_U_iso_or_equiv
MgM1 0.00000 0.00000 0.00000 0.90500 0.00494
FeM1 0.00000 0.00000 0.00000 0.08500 0.00494
NiM1 0.00000 0.00000 0.00000 0.01000 0.00494
MgM2 0.99030 0.27760 0.25000 0.91200 0.00494
FeM2 0.99030 0.27760 0.25000 0.07900 0.00494
MnM2 0.99030 0.27760 0.25000 0.00300 0.00494
CaM2 0.99030 0.27760 0.25000 0.00700 0.00494
SiT 0.42670 0.09430 0.25000 1.00000 0.00405
O1 0.76620 0.09180 0.25000 1.00000 0.00545
O2 0.22000 0.44790 0.25000 1.00000 0.00519
O3 0.27820 0.16320 0.03330 1.00000 0.00583
