#------------------------------------------------------------------------------
#$Date: 2017-10-06 19:24:22 +0300 (Fri, 06 Oct 2017) $
#$Revision: 201816 $
#$URL: file:///home/coder/svn-repositories/cod/cif/9/00/55/9005542.cif $
#------------------------------------------------------------------------------
#
# This file is available in the Crystallography Open Database (COD),
# http://www.crystallography.net/. The original data for this entry
# were provided the American Mineralogist Crystal Structure Database,
# http://rruff.geo.arizona.edu/AMS/amcsd.php
#
# The file may be used within the scientific community so long as
# proper attribution is given to the journal article from which the
# data were obtained.
#
data_9005542
loop_
_publ_author_name
'Tribaudino, M.'
'Nestola, F.'
_publ_section_title
;
 Average and local structure in P2_1/c clinopyroxenes along the
 join diopside-enstatite (CaMgSi2O6-Mg2Si2O6)
 Sample: Di15En85 (split model)
;
_journal_name_full               'European Journal of Mineralogy'
_journal_page_first              549
_journal_page_last               555
_journal_paper_doi               10.1127/0935-1221/2002/0014-0549
_journal_volume                  14
_journal_year                    2002
_chemical_formula_sum            'Ca0.15 Mg1.85 O6 Si2'
_chemical_name_mineral           Enstatite
_space_group_IT_number           14
_symmetry_space_group_name_Hall  '-P 2ybc'
_symmetry_space_group_name_H-M   'P 1 21/c 1'
_cell_angle_alpha                90
_cell_angle_beta                 108.37
_cell_angle_gamma                90
_cell_length_a                   9.654
_cell_length_b                   8.845
_cell_length_c                   5.203
_cell_volume                     421.642
_database_code_amcsd             0006930
_exptl_crystal_density_diffrn    3.200
_cod_original_formula_sum        'Ca.15 Mg1.85 Si2 O6'
_cod_database_code               9005542
loop_
_symmetry_equiv_pos_as_xyz
x,y,z
x,1/2-y,1/2+z
-x,1/2+y,1/2-z
-x,-y,-z
loop_
_atom_site_label
_atom_site_fract_x
_atom_site_fract_y
_atom_site_fract_z
_atom_site_occupancy
_atom_site_U_iso_or_equiv
CaM2 0.26360 0.03950 0.23800 0.15000 0.00823
MgM2 0.25350 0.01220 0.21760 0.85000 0.00709
MgM1 0.25085 0.65377 0.22290 1.00000 0.00614
SiTA 0.04243 0.34123 0.28681 1.00000 0.00494
SiTB 0.55078 0.83804 0.23258 1.00000 0.00510
O1A 0.86650 0.33950 0.17920 1.00000 0.00583
O2A 0.12110 0.50120 0.32210 1.00000 0.00722
O3A* 0.10600 0.27720 0.60700 0.85000 0.00659
O3A** 0.09960 0.25800 0.56600 0.15000 0.00659
O1B 0.37460 0.83950 0.12750 1.00000 0.00659
O2B* 0.63370 0.98360 0.38780 0.85000 0.00633
O2B** 0.61210 1.00030 0.32800 0.15000 0.00633
O3B* 0.60440 0.69770 0.46120 0.85000 0.00671
O3B** 0.60750 0.77800 -0.01000 0.15000 0.00671
loop_
_cod_related_entry_id
_cod_related_entry_database
_cod_related_entry_code
1 AMCSD 0006930
