#------------------------------------------------------------------------------
#$Date: 2016-02-16 14:49:47 +0200 (Tue, 16 Feb 2016) $
#$Revision: 176465 $
#$URL: svn://www.crystallography.net/cod/cif/9/00/63/9006396.cif $
#------------------------------------------------------------------------------
#
# This file is available in the Crystallography Open Database (COD),
# http://www.crystallography.net/. The original data for this entry
# were provided the American Mineralogist Crystal Structure Database,
# http://rruff.geo.arizona.edu/AMS/amcsd.php
#
# The file may be used within the scientific community so long as
# proper attribution is given to the journal article from which the
# data were obtained.
#
data_9006396
loop_
_publ_author_name
'Muller-Sommer M'
'Hock, R.'
'Kirfel, A.'
_publ_section_title
;
 Rietveld refinement study of the cation distribution in (Co, Mg)-olivine
 solid solution
 Sample: M75
;
_journal_name_full               'Physics and Chemistry of Minerals'
_journal_page_first              17
_journal_page_last               23
_journal_paper_doi               10.1007/s002690050013
_journal_volume                  24
_journal_year                    1997
_chemical_formula_sum            'Co0.499 Mg1.499 O4 Si'
_chemical_name_mineral           Olivine
_space_group_IT_number           62
_symmetry_space_group_name_Hall  '-P 2c 2ab'
_symmetry_space_group_name_H-M   'P b n m'
_cell_angle_alpha                90
_cell_angle_beta                 90
_cell_angle_gamma                90
_cell_length_a                   4.7633
_cell_length_b                   10.2290
_cell_length_c                   5.9874
_cell_volume                     291.729
_exptl_crystal_density_diffrn    3.596
_cod_original_formula_sum        'Co.499 Mg1.499 Si O4'
_cod_database_code               9006396
loop_
_symmetry_equiv_pos_as_xyz
x,y,z
x,y,1/2-z
-x,-y,1/2+z
1/2+x,1/2-y,1/2+z
1/2-x,1/2+y,1/2-z
1/2-x,1/2+y,z
1/2+x,1/2-y,-z
-x,-y,-z
loop_
_atom_site_label
_atom_site_fract_x
_atom_site_fract_y
_atom_site_fract_z
_atom_site_occupancy
_atom_site_U_iso_or_equiv
CoM1 0.00000 0.00000 0.00000 0.37200 0.00659
MgM1 0.00000 0.00000 0.00000 0.62700 0.00659
CoM2 0.99150 0.27730 0.25000 0.12700 0.00519
MgM2 0.99150 0.27730 0.25000 0.87200 0.00519
Si 0.42740 0.09430 0.25000 1.00000 0.00431
O1 0.76350 0.09240 0.25000 1.00000 0.00595
O2 0.21700 0.45070 0.25000 1.00000 0.00595
O3 0.28160 0.16290 0.03690 1.00000 0.00646
