#------------------------------------------------------------------------------
#$Date: 2016-02-16 14:49:47 +0200 (Tue, 16 Feb 2016) $
#$Revision: 176465 $
#$URL: svn://www.crystallography.net/cod/cif/9/00/61/9006114.cif $
#------------------------------------------------------------------------------
#
# This file is available in the Crystallography Open Database (COD),
# http://www.crystallography.net/. The original data for this entry
# were provided the American Mineralogist Crystal Structure Database,
# http://rruff.geo.arizona.edu/AMS/amcsd.php
#
# The file may be used within the scientific community so long as
# proper attribution is given to the journal article from which the
# data were obtained.
#
data_9006114
loop_
_publ_author_name
'Swainson, I. P.'
'Dove, M. T.'
'Schmahl, W. W.'
'Putnis, A.'
_publ_section_title
;
 Neutron powder diffraction study of the akermanite-gehlenite
 solid solution series
 Sample: 50% Ak
;
_journal_name_full               'Physics and Chemistry of Minerals'
_journal_page_first              185
_journal_page_last               195
_journal_volume                  19
_journal_year                    1992
_chemical_formula_sum            'Al0.99 Ca2 Mg0.46 O7 Si1.52'
_chemical_name_mineral           Akermanite
_space_group_IT_number           113
_symmetry_space_group_name_Hall  'P -4 2ab'
_symmetry_space_group_name_H-M   'P -4 21 m'
_cell_angle_alpha                90
_cell_angle_beta                 90
_cell_angle_gamma                90
_cell_length_a                   7.7475
_cell_length_b                   7.7475
_cell_length_c                   5.0359
_cell_volume                     302.274
_exptl_crystal_density_diffrn    2.997
_cod_original_formula_sum        'Ca2 Mg.46 Al.99 Si1.52 O7'
_cod_database_code               9006114
loop_
_symmetry_equiv_pos_as_xyz
x,y,z
1/2-y,1/2-x,z
y,-x,-z
1/2-x,1/2+y,-z
-x,-y,z
1/2+y,1/2+x,z
-y,x,-z
1/2+x,1/2-y,-z
loop_
_atom_site_aniso_label
_atom_site_aniso_U_11
_atom_site_aniso_U_22
_atom_site_aniso_U_33
_atom_site_aniso_U_12
_atom_site_aniso_U_13
_atom_site_aniso_U_23
Ca 0.08332 0.08332 -0.00116 0.02919 -0.00415 -0.00415
MgT1 0.03071 0.03071 0.00231 0.00000 0.00000 0.00000
AlT1 0.03071 0.03071 0.00231 0.00000 0.00000 0.00000
AlT2 0.03923 0.03923 -0.00514 -0.00274 -0.00237 -0.00237
SiT2 0.03923 0.03923 -0.00514 -0.00274 -0.00237 -0.00237
O1 0.07906 0.07906 -0.00334 -0.04470 0.00000 0.00000
O2 0.08818 0.00000 -0.00373 0.00000 0.01364 0.01364
O3 0.11251 0.06903 0.00206 -0.01551 -0.00731 -0.00474
loop_
_atom_site_label
_atom_site_fract_x
_atom_site_fract_y
_atom_site_fract_z
_atom_site_occupancy
Ca 0.33690 0.16310 0.50930 1.00000
MgT1 0.00000 0.00000 0.00000 0.46000
AlT1 0.00000 0.00000 0.00000 0.54000
AlT2 0.14190 0.35810 0.94270 0.22500
SiT2 0.14190 0.35810 0.94270 0.76000
O1 0.50000 0.00000 0.17820 1.00000
O2 0.14230 0.35770 0.26760 1.00000
O3 0.08500 0.17780 0.79800 1.00000
