#------------------------------------------------------------------------------
#$Date: 2016-02-16 14:49:47 +0200 (Tue, 16 Feb 2016) $
#$Revision: 176465 $
#$URL: svn://www.crystallography.net/cod/cif/9/00/65/9006525.cif $
#------------------------------------------------------------------------------
#
# This file is available in the Crystallography Open Database (COD),
# http://www.crystallography.net/. The original data for this entry
# were provided the American Mineralogist Crystal Structure Database,
# http://rruff.geo.arizona.edu/AMS/amcsd.php
#
# The file may be used within the scientific community so long as
# proper attribution is given to the journal article from which the
# data were obtained.
#
data_9006525
loop_
_publ_author_name
'Yang, H.'
'Hazen, R. M.'
'Finger, L. W.'
'Prewitt, C. T.'
'Downs, R. T.'
_publ_section_title
;Compressibility and crystal structure of sillimanite, Al2SiO5, at high
 pressure Sample: P = 0.00 GPa
;
_journal_name_full               'Physics and Chemistry of Minerals'
_journal_page_first              39
_journal_page_last               47
_journal_paper_doi               10.1007/s002690050084
_journal_volume                  25
_journal_year                    1997
_chemical_formula_sum            'Al2 O5 Si'
_chemical_name_mineral           Sillimanite
_space_group_IT_number           62
_symmetry_space_group_name_Hall  '-P 2c 2ab'
_symmetry_space_group_name_H-M   'P b n m'
_cell_angle_alpha                90
_cell_angle_beta                 90
_cell_angle_gamma                90
_cell_length_a                   7.4857
_cell_length_b                   7.6750
_cell_length_c                   5.7751
_cell_volume                     331.795
_diffrn_ambient_pressure         0
_exptl_crystal_density_diffrn    3.244
_cod_original_formula_sum        'Al2 Si O5'
_cod_database_code               9006525
loop_
_symmetry_equiv_pos_as_xyz
x,y,z
x,y,1/2-z
-x,-y,1/2+z
1/2+x,1/2-y,1/2+z
1/2-x,1/2+y,1/2-z
1/2-x,1/2+y,z
1/2+x,1/2-y,-z
-x,-y,-z
loop_
_atom_site_label
_atom_site_fract_x
_atom_site_fract_y
_atom_site_fract_z
_atom_site_U_iso_or_equiv
Al1 0.00000 0.00000 0.00000 0.00469
Al2 0.14170 0.34520 0.25000 0.00557
Si 0.15320 0.34040 0.75000 0.00532
OA 0.36020 0.40890 0.75000 0.00659
OB 0.35660 0.43390 0.25000 0.00697
OC 0.47670 0.00090 0.75000 0.01153
OD 0.12550 0.22320 0.51450 0.00798
