#------------------------------------------------------------------------------
#$Date: 2017-10-06 19:24:22 +0300 (Fri, 06 Oct 2017) $
#$Revision: 201816 $
#$URL: file:///home/coder/svn-repositories/cod/cif/9/00/62/9006287.cif $
#------------------------------------------------------------------------------
#
# This file is available in the Crystallography Open Database (COD),
# http://www.crystallography.net/. The original data for this entry
# were provided the American Mineralogist Crystal Structure Database,
# http://rruff.geo.arizona.edu/AMS/amcsd.php
#
# The file may be used within the scientific community so long as
# proper attribution is given to the journal article from which the
# data were obtained.
#
data_9006287
loop_
_publ_author_name
'Boisen, M. B.'
'Gibbs, G. V.'
'Bukowinski, M. S. T.'
_publ_section_title
;
 Framework silica structures generated using simulated annealing
 with a potential energy function based on an H6Si2O7 molecule
 Sample: 4
;
_journal_name_full               'Physics and Chemistry of Minerals'
_journal_page_first              269
_journal_page_last               284
_journal_volume                  21
_journal_year                    1994
_chemical_formula_structural     SiO2
_chemical_formula_sum            'O2 Si'
_space_group_IT_number           92
_symmetry_space_group_name_Hall  'P 4abw 2nw'
_symmetry_space_group_name_H-M   'P 41 21 2'
_cell_angle_alpha                90
_cell_angle_beta                 90
_cell_angle_gamma                90
_cell_length_a                   4.9329
_cell_length_b                   4.9329
_cell_length_c                   6.4645
_cell_volume                     157.304
_database_code_amcsd             0007869
_exptl_crystal_density_diffrn    2.537
_cod_original_formula_sum        'Si O2'
_cod_database_code               9006287
loop_
_symmetry_equiv_pos_as_xyz
x,y,z
y,x,-z
1/2-y,1/2+x,1/4+z
1/2-x,1/2+y,1/4-z
-x,-y,1/2+z
-y,-x,1/2-z
1/2+y,1/2-x,3/4+z
1/2+x,1/2-y,3/4-z
loop_
_atom_site_label
_atom_site_fract_x
_atom_site_fract_y
_atom_site_fract_z
Si 0.68229 0.68229 0.50000
O 0.36457 0.73165 0.44807
loop_
_cod_related_entry_id
_cod_related_entry_database
_cod_related_entry_code
1 AMCSD 0007869
