#------------------------------------------------------------------------------
#$Date: 2016-02-16 14:49:47 +0200 (Tue, 16 Feb 2016) $
#$Revision: 176465 $
#$URL: svn://www.crystallography.net/cod/cif/9/00/69/9006935.cif $
#------------------------------------------------------------------------------
#
# This file is available in the Crystallography Open Database (COD),
# http://www.crystallography.net/. The original data for this entry
# were provided the American Mineralogist Crystal Structure Database,
# http://rruff.geo.arizona.edu/AMS/amcsd.php
#
# The file may be used within the scientific community so long as
# proper attribution is given to the journal article from which the
# data were obtained.
#
data_9006935
loop_
_publ_author_name
'Kusaka, K.'
'Hagiya, K.'
'Ohmasa, M.'
'Okano, Y.'
'Mukai, M.'
'Iishi, K.'
'Haga, N.'
_publ_section_title
;Determination of structures of Ca2CoSi2O7, Ca2MgSi2O7, and
 Ca2(Mg.55Fe.45)Si2O7 in incommensurate and normal phases and observation of
 diffuse streaks at high temperature Sample: T = 297 K Melilite group
;
_journal_name_full               'Physics and Chemistry of Minerals'
_journal_page_first              150
_journal_page_last               166
_journal_paper_doi               10.1007/s002690000147
_journal_volume                  28
_journal_year                    2001
_chemical_formula_sum            'Ca2 Mg O7 Si2'
_chemical_name_mineral           Akermanite
_space_group_IT_number           113
_symmetry_space_group_name_Hall  'P -4 2ab'
_symmetry_space_group_name_H-M   'P -4 21 m'
_cell_angle_alpha                90
_cell_angle_beta                 90
_cell_angle_gamma                90
_cell_length_a                   7.8348
_cell_length_b                   7.8348
_cell_length_c                   5.0087
_cell_volume                     307.454
_diffrn_ambient_temperature      297
_exptl_crystal_density_diffrn    2.945
_cod_original_formula_sum        'Mg Ca2 Si2 O7'
_cod_database_code               9006935
loop_
_symmetry_equiv_pos_as_xyz
x,y,z
1/2-y,1/2-x,z
y,-x,-z
1/2-x,1/2+y,-z
-x,-y,z
1/2+y,1/2+x,z
-y,x,-z
1/2+x,1/2-y,-z
loop_
_atom_site_label
_atom_site_fract_x
_atom_site_fract_y
_atom_site_fract_z
_atom_site_U_iso_or_equiv
Mg 0.00000 0.00000 0.00000 0.00887
Ca 0.33180 0.16820 0.50660 0.01748
Si 0.13970 0.36030 0.93500 0.00773
O1 0.00000 0.50000 0.82000 0.02660
O2 0.14020 0.35980 0.25510 0.01938
O3 0.08250 0.18700 0.78830 0.02406
