#------------------------------------------------------------------------------
#$Date: 2016-02-16 14:49:47 +0200 (Tue, 16 Feb 2016) $
#$Revision: 176465 $
#$URL: svn://www.crystallography.net/cod/cif/9/00/61/9006113.cif $
#------------------------------------------------------------------------------
#
# This file is available in the Crystallography Open Database (COD),
# http://www.crystallography.net/. The original data for this entry
# were provided the American Mineralogist Crystal Structure Database,
# http://rruff.geo.arizona.edu/AMS/amcsd.php
#
# The file may be used within the scientific community so long as
# proper attribution is given to the journal article from which the
# data were obtained.
#
data_9006113
loop_
_publ_author_name
'Swainson, I. P.'
'Dove, M. T.'
'Schmahl, W. W.'
'Putnis, A.'
_publ_section_title
;
 Neutron powder diffraction study of the akermanite-gehlenite
 solid solution series
 Sample: 25% Ak
;
_journal_name_full               'Physics and Chemistry of Minerals'
_journal_page_first              185
_journal_page_last               195
_journal_volume                  19
_journal_year                    1992
_chemical_formula_sum            'Al1.54 Ca2 Mg0.21 O7 Si1.24'
_chemical_name_mineral           Gehlenite
_space_group_IT_number           113
_symmetry_space_group_name_Hall  'P -4 2ab'
_symmetry_space_group_name_H-M   'P -4 21 m'
_cell_angle_alpha                90
_cell_angle_beta                 90
_cell_angle_gamma                90
_cell_length_a                   7.7115
_cell_length_b                   7.7115
_cell_length_c                   5.0498
_cell_volume                     300.298
_exptl_crystal_density_diffrn    3.026
_cod_original_formula_sum        'Ca2 Mg.21 Al1.54 Si1.24 O7'
_cod_database_code               9006113
loop_
_symmetry_equiv_pos_as_xyz
x,y,z
1/2-y,1/2-x,z
y,-x,-z
1/2-x,1/2+y,-z
-x,-y,z
1/2+y,1/2+x,z
-y,x,-z
1/2+x,1/2-y,-z
loop_
_atom_site_aniso_label
_atom_site_aniso_U_11
_atom_site_aniso_U_22
_atom_site_aniso_U_33
_atom_site_aniso_U_12
_atom_site_aniso_U_13
_atom_site_aniso_U_23
Ca 0.05814 0.05814 0.00917 0.02832 0.00000 0.00000
MgT1 0.02591 0.02591 0.00827 0.00000 0.00000 0.00000
AlT1 0.02591 0.02591 0.00827 0.00000 0.00000 0.00000
AlT2 0.01115 0.01115 0.00426 -0.00211 0.00256 0.00256
SiT2 0.01115 0.01115 0.00426 -0.00211 0.00256 0.00256
O1 0.04157 0.04037 0.00633 -0.02892 0.00000 0.00000
O2 0.04097 0.00000 0.01021 0.00000 0.00710 0.00710
O3 0.05121 0.02591 0.01214 -0.01054 0.00552 -0.00473
loop_
_atom_site_label
_atom_site_fract_x
_atom_site_fract_y
_atom_site_fract_z
_atom_site_occupancy
Ca 0.33770 0.16230 0.51000 1.00000
MgT1 0.00000 0.00000 0.00000 0.21000
AlT1 0.00000 0.00000 0.00000 0.79000
AlT2 0.14210 0.35790 0.95030 0.37500
SiT2 0.14210 0.35790 0.95030 0.62000
O1 0.50000 0.00000 0.17930 1.00000
O2 0.14300 0.35700 0.27560 1.00000
O3 0.08610 0.17170 0.80300 1.00000
