#------------------------------------------------------------------------------
#$Date: 2016-02-16 14:49:47 +0200 (Tue, 16 Feb 2016) $
#$Revision: 176465 $
#$URL: svn://www.crystallography.net/cod/cif/9/00/64/9006422.cif $
#------------------------------------------------------------------------------
#
# This file is available in the Crystallography Open Database (COD),
# http://www.crystallography.net/. The original data for this entry
# were provided the American Mineralogist Crystal Structure Database,
# http://rruff.geo.arizona.edu/AMS/amcsd.php
#
# The file may be used within the scientific community so long as
# proper attribution is given to the journal article from which the
# data were obtained.
#
data_9006422
loop_
_publ_author_name
'Hugh-Jones D A'
'Chopelas, A.'
'Angel, R. J.'
_publ_section_title
;
 Tetrahedral compression in (Mg,Fe)SiO3 orthopyroxenes
 Sample: P = 0 GPa
;
_journal_name_full               'Physics and Chemistry of Minerals'
_journal_page_first              301
_journal_page_last               310
_journal_paper_doi               10.1007/s002690050042
_journal_volume                  24
_journal_year                    1997
_chemical_formula_sum            'Fe O3 Si'
_chemical_name_mineral           Ferrosilite
_space_group_IT_number           61
_symmetry_space_group_name_Hall  '-P 2ac 2ab'
_symmetry_space_group_name_H-M   'P b c a'
_cell_angle_alpha                90
_cell_angle_beta                 90
_cell_angle_gamma                90
_cell_length_a                   18.417
_cell_length_b                   9.073
_cell_length_c                   5.239
_cell_volume                     875.423
_diffrn_ambient_pressure         0
_exptl_crystal_density_diffrn    4.004
_cod_original_formula_sum        'Fe Si O3'
_cod_database_code               9006422
loop_
_symmetry_equiv_pos_as_xyz
x,y,z
x,1/2-y,1/2+z
-x,1/2+y,1/2-z
1/2-x,1/2+y,z
1/2+x,1/2-y,-z
1/2+x,y,1/2-z
1/2-x,-y,1/2+z
-x,-y,-z
loop_
_atom_site_label
_atom_site_fract_x
_atom_site_fract_y
_atom_site_fract_z
_atom_site_U_iso_or_equiv
FeM1 0.37580 0.65390 0.87410 0.00456
FeM2 0.37770 0.48550 0.36620 0.00684
SiTA 0.27240 0.33900 0.04860 0.00367
SiTB 0.47320 0.33460 0.78900 0.00279
O1a 0.18470 0.33400 0.03900 0.00595
O2a 0.31190 0.49610 0.06000 0.00659
O3a 0.30230 0.23600 0.81800 0.00735
O1b 0.56110 0.33740 0.78500 0.00443
O2b 0.43300 0.48040 0.69300 0.00697
O3b 0.44770 0.20270 0.58400 0.00608
