#------------------------------------------------------------------------------
#$Date: 2016-02-16 14:49:47 +0200 (Tue, 16 Feb 2016) $
#$Revision: 176465 $
#$URL: svn://www.crystallography.net/cod/cif/9/00/61/9006112.cif $
#------------------------------------------------------------------------------
#
# This file is available in the Crystallography Open Database (COD),
# http://www.crystallography.net/. The original data for this entry
# were provided the American Mineralogist Crystal Structure Database,
# http://rruff.geo.arizona.edu/AMS/amcsd.php
#
# The file may be used within the scientific community so long as
# proper attribution is given to the journal article from which the
# data were obtained.
#
data_9006112
loop_
_publ_author_name
'Swainson, I. P.'
'Dove, M. T.'
'Schmahl, W. W.'
'Putnis, A.'
_publ_section_title
;
 Neutron powder diffraction study of the akermanite-gehlenite
 solid solution series
 Sample: O% Ak
;
_journal_name_full               'Physics and Chemistry of Minerals'
_journal_page_first              185
_journal_page_last               195
_journal_volume                  19
_journal_year                    1992
_chemical_formula_sum            'Al2.06 Ca2 O7 Si0.95'
_chemical_name_mineral           Gehlenite
_space_group_IT_number           113
_symmetry_space_group_name_Hall  'P -4 2ab'
_symmetry_space_group_name_H-M   'P -4 21 m'
_cell_angle_alpha                90
_cell_angle_beta                 90
_cell_angle_gamma                90
_cell_length_a                   7.6850
_cell_length_b                   7.6850
_cell_length_c                   5.0636
_cell_volume                     299.052
_exptl_crystal_density_diffrn    3.047
_cod_original_formula_sum        'Ca2 Al2.06 Si.95 O7'
_cod_database_code               9006112
loop_
_symmetry_equiv_pos_as_xyz
x,y,z
1/2-y,1/2-x,z
y,-x,-z
1/2-x,1/2+y,-z
-x,-y,z
1/2+y,1/2+x,z
-y,x,-z
1/2+x,1/2-y,-z
loop_
_atom_site_aniso_label
_atom_site_aniso_U_11
_atom_site_aniso_U_22
_atom_site_aniso_U_33
_atom_site_aniso_U_12
_atom_site_aniso_U_13
_atom_site_aniso_U_23
Ca 0.05745 0.05745 0.00766 0.01945 -0.00256 -0.00256
AlT1 0.02035 0.02035 0.00987 0.00000 0.00000 0.00000
AlT2 0.01496 0.01496 0.00260 -0.00239 0.00138 0.00138
SiT2 0.01496 0.01496 0.00260 -0.00239 0.00138 0.00138
O1 0.03650 0.03650 0.00546 -0.00957 0.00000 0.00000
O2 0.04069 0.04069 0.00870 0.00000 0.00513 0.00513
O3 0.04667 0.02603 0.01000 -0.00808 0.00729 -0.00039
loop_
_atom_site_label
_atom_site_fract_x
_atom_site_fract_y
_atom_site_fract_z
_atom_site_occupancy
Ca 0.33890 0.16110 0.51040 1.00000
AlT1 0.00000 0.00000 0.00000 1.00000
AlT2 0.14340 0.35560 0.95400 0.26500
SiT2 0.14340 0.35560 0.95400 0.23750
O1 0.50000 0.00000 0.17650 1.00000
O2 0.14270 0.35730 0.28350 1.00000
O3 0.08760 0.16780 0.80780 1.00000
