#------------------------------------------------------------------------------
#$Date: 2016-02-16 14:49:47 +0200 (Tue, 16 Feb 2016) $
#$Revision: 176465 $
#$URL: svn://www.crystallography.net/cod/cif/9/00/73/9007394.cif $
#------------------------------------------------------------------------------
#
# This file is available in the Crystallography Open Database (COD),
# http://www.crystallography.net/. The original data for this entry
# were provided the American Mineralogist Crystal Structure Database,
# http://rruff.geo.arizona.edu/AMS/amcsd.php
#
# The file may be used within the scientific community so long as
# proper attribution is given to the journal article from which the
# data were obtained.
#
data_9007394
loop_
_publ_author_name
'Ellemann-Olesen R'
'Malcherek, T.'
_publ_section_title
;
 The structure of SrTiOGeO4 and its solid solution with CaTiOGeO4
 Note: titanite-type structure
 Sample: Sr50
;
_journal_name_full               'Physics and Chemistry of Minerals'
_journal_page_first              531
_journal_page_last               545
_journal_paper_doi               10.1007/s00269-005-0019-0
_journal_volume                  32
_journal_year                    2005
_chemical_formula_structural     Ca.5Sr.5TiOGeO4
_chemical_formula_sum            'Ca0.507 Ge O5 Sr0.492 Ti'
_space_group_IT_number           14
_symmetry_space_group_name_Hall  '-P 2yab'
_symmetry_space_group_name_H-M   'P 1 21/a 1'
_cell_angle_alpha                90
_cell_angle_beta                 113.658
_cell_angle_gamma                90
_cell_length_a                   7.1779
_cell_length_b                   8.9752
_cell_length_c                   6.7105
_cell_volume                     395.978
_exptl_crystal_density_diffrn    4.427
_cod_original_formula_sum        'Sr.492 Ca.507 Ti Ge O5'
_cod_database_code               9007394
loop_
_symmetry_equiv_pos_as_xyz
x,y,z
1/2+x,1/2-y,z
1/2-x,1/2+y,-z
-x,-y,-z
loop_
_atom_site_label
_atom_site_fract_x
_atom_site_fract_y
_atom_site_fract_z
_atom_site_occupancy
_atom_site_U_iso_or_equiv
Sr 0.24140 0.41950 0.25310 0.49200 0.02600
Ca 0.24140 0.41950 0.25310 0.50700 0.02600
Ti 0.51570 0.25470 0.74250 1.00000 0.01600
Ge 0.74310 0.43300 0.24890 1.00000 0.01200
O1 0.75060 0.31920 0.74100 1.00000 0.00600
O2A 0.90430 0.30670 0.44920 1.00000 0.00600
O2B 0.06700 0.18560 0.08460 1.00000 0.00600
O3A 0.39350 0.46830 0.64960 1.00000 0.00600
O3B 0.61250 0.05540 0.85440 1.00000 0.00600
