#------------------------------------------------------------------------------
#$Date: 2016-02-16 14:49:47 +0200 (Tue, 16 Feb 2016) $
#$Revision: 176465 $
#$URL: svn://www.crystallography.net/cod/cif/9/00/73/9007393.cif $
#------------------------------------------------------------------------------
#
# This file is available in the Crystallography Open Database (COD),
# http://www.crystallography.net/. The original data for this entry
# were provided the American Mineralogist Crystal Structure Database,
# http://rruff.geo.arizona.edu/AMS/amcsd.php
#
# The file may be used within the scientific community so long as
# proper attribution is given to the journal article from which the
# data were obtained.
#
data_9007393
loop_
_publ_author_name
'Ellemann-Olesen R'
'Malcherek, T.'
_publ_section_title
;
 The structure of SrTiOGeO4 and its solid solution with CaTiOGeO4
 Note: titanite-type structure
 Sample: Sr60
;
_journal_name_full               'Physics and Chemistry of Minerals'
_journal_page_first              531
_journal_page_last               545
_journal_paper_doi               10.1007/s00269-005-0019-0
_journal_volume                  32
_journal_year                    2005
_chemical_formula_structural     Ca.4Sr.6TiOGeO4
_chemical_formula_sum            'Ca0.389 Ge O5 Sr0.61 Ti'
_space_group_IT_number           14
_symmetry_space_group_name_Hall  '-P 2yab'
_symmetry_space_group_name_H-M   'P 1 21/a 1'
_cell_angle_alpha                90
_cell_angle_beta                 113.647
_cell_angle_gamma                90
_cell_length_a                   7.1929
_cell_length_b                   8.9996
_cell_length_c                   6.7295
_cell_volume                     399.045
_exptl_crystal_density_diffrn    4.486
_cod_original_formula_sum        'Sr.61 Ca.389 Ti Ge O5'
_cod_database_code               9007393
loop_
_symmetry_equiv_pos_as_xyz
x,y,z
1/2+x,1/2-y,z
1/2-x,1/2+y,-z
-x,-y,-z
loop_
_atom_site_label
_atom_site_fract_x
_atom_site_fract_y
_atom_site_fract_z
_atom_site_occupancy
_atom_site_U_iso_or_equiv
Sr 0.24520 0.42070 0.24990 0.61000 0.02700
Ca 0.24520 0.42070 0.24990 0.38900 0.02700
Ti 0.51160 0.25110 0.74460 1.00000 0.01300
Ge 0.74990 0.43410 0.24720 1.00000 0.01500
O1 0.75200 0.30950 0.75400 1.00000 0.00700
O2A 0.91080 0.30460 0.41870 1.00000 0.00700
O2B 0.07270 0.18480 0.04570 1.00000 0.00700
O3A 0.39500 0.46020 0.64920 1.00000 0.00700
O3B 0.60000 0.04600 0.84720 1.00000 0.00700
