#------------------------------------------------------------------------------
#$Date: 2016-02-16 14:49:47 +0200 (Tue, 16 Feb 2016) $
#$Revision: 176465 $
#$URL: svn://www.crystallography.net/cod/cif/9/00/73/9007384.cif $
#------------------------------------------------------------------------------
#
# This file is available in the Crystallography Open Database (COD),
# http://www.crystallography.net/. The original data for this entry
# were provided the American Mineralogist Crystal Structure Database,
# http://rruff.geo.arizona.edu/AMS/amcsd.php
#
# The file may be used within the scientific community so long as
# proper attribution is given to the journal article from which the
# data were obtained.
#
data_9007384
loop_
_publ_author_name
'Liferovich, R. P.'
'Mitchell, R. H.'
_publ_section_title
;
 Rhombohedral ilmenite group nickel titanates with Zn, Mg, and Mn:
 synthesis and crystal structures
;
_journal_name_full               'Physics and Chemistry of Minerals'
_journal_page_first              442
_journal_page_last               449
_journal_paper_doi               10.1007/s00269-005-0020-7
_journal_volume                  32
_journal_year                    2005
_chemical_formula_sum            'Mn O3 Ti'
_chemical_name_mineral           Pyrophanite
_space_group_IT_number           148
_symmetry_space_group_name_Hall  '-R 3'
_symmetry_space_group_name_H-M   'R -3 :H'
_cell_angle_alpha                90
_cell_angle_beta                 90
_cell_angle_gamma                120
_cell_length_a                   5.1386
_cell_length_b                   5.1386
_cell_length_c                   14.2857
_cell_volume                     326.679
_exptl_crystal_density_diffrn    4.600
_cod_original_sg_symbol_H-M      'R -3'
_cod_original_formula_sum        'Mn Ti O3'
_cod_database_code               9007384
loop_
_symmetry_equiv_pos_as_xyz
x,y,z
2/3+x,1/3+y,1/3+z
1/3+x,2/3+y,2/3+z
y,-x+y,-z
2/3+y,1/3-x+y,1/3-z
1/3+y,2/3-x+y,2/3-z
-x+y,-x,z
2/3-x+y,1/3-x,1/3+z
1/3-x+y,2/3-x,2/3+z
-x,-y,-z
2/3-x,1/3-y,1/3-z
1/3-x,2/3-y,2/3-z
-y,x-y,z
2/3-y,1/3+x-y,1/3+z
1/3-y,2/3+x-y,2/3+z
x-y,x,-z
2/3+x-y,1/3+x,1/3-z
1/3+x-y,2/3+x,2/3-z
loop_
_atom_site_label
_atom_site_fract_x
_atom_site_fract_y
_atom_site_fract_z
_atom_site_U_iso_or_equiv
MnA 0.00000 0.00000 0.36020 0.00317
TiB 0.00000 0.00000 0.14780 0.00380
O1 0.32000 0.02920 0.24260 0.00203
