#------------------------------------------------------------------------------
#$Date: 2016-02-16 14:49:47 +0200 (Tue, 16 Feb 2016) $
#$Revision: 176465 $
#$URL: svn://www.crystallography.net/cod/cif/9/00/73/9007381.cif $
#------------------------------------------------------------------------------
#
# This file is available in the Crystallography Open Database (COD),
# http://www.crystallography.net/. The original data for this entry
# were provided the American Mineralogist Crystal Structure Database,
# http://rruff.geo.arizona.edu/AMS/amcsd.php
#
# The file may be used within the scientific community so long as
# proper attribution is given to the journal article from which the
# data were obtained.
#
data_9007381
loop_
_publ_author_name
'Xu, H.'
'Navrotsky, A.'
'Balmer, M. L.'
'Su, Y.'
_publ_section_title
;
 Crystal-chemical and energetic systematics of wadeite-type phases
 A2BSi3O9 (A = K, Cs; B = Si, Ti, Zr)
;
_journal_name_full               'Physics and Chemistry of Minerals'
_journal_page_first              426
_journal_page_last               435
_journal_paper_doi               10.1007/s00269-005-0017-2
_journal_volume                  32
_journal_year                    2005
_chemical_formula_structural     K2TiSi3O9
_chemical_formula_sum            'K2 O9 Si3 Ti'
_space_group_IT_number           176
_symmetry_space_group_name_Hall  '-P 6c'
_symmetry_space_group_name_H-M   'P 63/m'
_cell_angle_alpha                90
_cell_angle_beta                 90
_cell_angle_gamma                120
_cell_length_a                   6.7766
_cell_length_b                   6.7766
_cell_length_c                   9.9275
_cell_volume                     394.816
_exptl_crystal_density_diffrn    2.981
_cod_original_cell_volume        394.815
_cod_original_formula_sum        'K2 Ti Si3 O9'
_cod_database_code               9007381
loop_
_symmetry_equiv_pos_as_xyz
x,y,z
-x+y,-x,1/2-z
x-y,x,1/2+z
y,-x+y,-z
-y,x-y,z
x,y,1/2-z
-x,-y,1/2+z
x-y,x,-z
-x+y,-x,z
-y,x-y,1/2-z
y,-x+y,1/2+z
-x,-y,-z
loop_
_atom_site_label
_atom_site_fract_x
_atom_site_fract_y
_atom_site_fract_z
_atom_site_U_iso_or_equiv
KA 0.33333 0.66667 0.05890 0.01810
TiB 0.00000 0.00000 0.00000 0.00670
Si 0.37560 0.24510 0.25000 0.00440
O1 0.48820 0.08160 0.25000 0.00800
O2 0.24750 0.22860 0.11130 0.00800
