#------------------------------------------------------------------------------
#$Date: 2016-02-16 14:49:47 +0200 (Tue, 16 Feb 2016) $
#$Revision: 176465 $
#$URL: svn://www.crystallography.net/cod/cif/9/00/73/9007397.cif $
#------------------------------------------------------------------------------
#
# This file is available in the Crystallography Open Database (COD),
# http://www.crystallography.net/. The original data for this entry
# were provided the American Mineralogist Crystal Structure Database,
# http://rruff.geo.arizona.edu/AMS/amcsd.php
#
# The file may be used within the scientific community so long as
# proper attribution is given to the journal article from which the
# data were obtained.
#
data_9007397
loop_
_publ_author_name
'Ellemann-Olesen R'
'Malcherek, T.'
_publ_section_title
;
 The structure of SrTiOGeO4 and its solid solution with CaTiOGeO4
 Note: titanite-type structure
 Sample: Sr10
;
_journal_name_full               'Physics and Chemistry of Minerals'
_journal_page_first              531
_journal_page_last               545
_journal_paper_doi               10.1007/s00269-005-0019-0
_journal_volume                  32
_journal_year                    2005
_chemical_formula_structural     Ca.9Sr.1TiOGeO4
_chemical_formula_sum            'Ca0.903 Ge O5 Sr0.096 Ti'
_space_group_IT_number           14
_symmetry_space_group_name_Hall  '-P 2yab'
_symmetry_space_group_name_H-M   'P 1 21/a 1'
_cell_angle_alpha                90
_cell_angle_beta                 113.766
_cell_angle_gamma                90
_cell_length_a                   7.1580
_cell_length_b                   8.9075
_cell_length_c                   6.6630
_cell_volume                     388.806
_exptl_crystal_density_diffrn    4.187
_cod_original_formula_sum        'Sr.096 Ca.903 Ti Ge O5'
_cod_database_code               9007397
loop_
_symmetry_equiv_pos_as_xyz
x,y,z
1/2+x,1/2-y,z
1/2-x,1/2+y,-z
-x,-y,-z
loop_
_atom_site_label
_atom_site_fract_x
_atom_site_fract_y
_atom_site_fract_z
_atom_site_occupancy
_atom_site_U_iso_or_equiv
Sr 0.23910 0.42060 0.25060 0.09600 0.01200
Ca 0.23910 0.42060 0.25060 0.90300 0.01200
Ti 0.51480 0.25800 0.74970 1.00000 0.01400
Ge 0.74990 0.43400 0.24620 1.00000 0.01900
O1 0.74400 0.31050 0.73550 1.00000 0.01500
O2A 0.90860 0.30410 0.43510 1.00000 0.01500
O2B 0.06850 0.18930 0.05580 1.00000 0.01500
O3A 0.38420 0.46310 0.64200 1.00000 0.01500
O3B 0.60150 0.04580 0.85360 1.00000 0.01500
