#------------------------------------------------------------------------------
#$Date: 2016-02-16 14:49:47 +0200 (Tue, 16 Feb 2016) $
#$Revision: 176465 $
#$URL: svn://www.crystallography.net/cod/cif/9/00/73/9007343.cif $
#------------------------------------------------------------------------------
#
# This file is available in the Crystallography Open Database (COD),
# http://www.crystallography.net/. The original data for this entry
# were provided the American Mineralogist Crystal Structure Database,
# http://rruff.geo.arizona.edu/AMS/amcsd.php
#
# The file may be used within the scientific community so long as
# proper attribution is given to the journal article from which the
# data were obtained.
#
data_9007343
loop_
_publ_author_name
'Liferovich, R. P.'
'Mitchell, R. H.'
_publ_section_title
;
 Crystal chemistry of titanite-structured compounds:
 the CaTi1-xZrxOSiO4 (x <= 0.5) series
 Sample: x=0.4
;
_journal_name_full               'Physics and Chemistry of Minerals'
_journal_page_first              40
_journal_page_last               51
_journal_paper_doi               10.1007/s00269-004-0441-8
_journal_volume                  32
_journal_year                    2005
_chemical_formula_sum            'Ca O5 Si Ti0.62 Zr0.38'
_chemical_name_mineral           Titanite
_space_group_IT_number           15
_symmetry_space_group_name_Hall  '-A 2ya'
_symmetry_space_group_name_H-M   'A 1 2/a 1'
_cell_angle_alpha                90
_cell_angle_beta                 113.477
_cell_angle_gamma                90
_cell_length_a                   7.1481
_cell_length_b                   8.8011
_cell_length_c                   6.6171
_cell_volume                     381.829
_exptl_crystal_density_diffrn    3.697
_cod_original_formula_sum        'Ca (Ti.62 Zr.38) Si O5'
_cod_database_code               9007343
loop_
_symmetry_equiv_pos_as_xyz
x,y,z
x,1/2+y,1/2+z
1/2+x,-y,z
1/2+x,1/2-y,1/2+z
1/2-x,y,-z
1/2-x,1/2+y,1/2-z
-x,-y,-z
-x,1/2-y,1/2-z
loop_
_atom_site_label
_atom_site_fract_x
_atom_site_fract_y
_atom_site_fract_z
_atom_site_occupancy
_atom_site_U_iso_or_equiv
CaX 0.25000 0.16820 0.00000 1.00000 0.01900
TiY 0.50000 0.00000 0.50000 0.62000 0.00950
ZrY 0.50000 0.00000 0.50000 0.38000 0.00950
Si 0.75000 0.18150 0.00000 1.00000 0.00874
O1 0.75000 0.07440 0.50000 1.00000 0.00937
O2 0.90860 0.06710 0.17810 1.00000 0.00937
O3 0.37640 0.21650 0.39200 1.00000 0.00937
