#------------------------------------------------------------------------------
#$Date: 2016-02-16 14:49:47 +0200 (Tue, 16 Feb 2016) $
#$Revision: 176465 $
#$URL: svn://www.crystallography.net/cod/cif/9/00/73/9007362.cif $
#------------------------------------------------------------------------------
#
# This file is available in the Crystallography Open Database (COD),
# http://www.crystallography.net/. The original data for this entry
# were provided the American Mineralogist Crystal Structure Database,
# http://rruff.geo.arizona.edu/AMS/amcsd.php
#
# The file may be used within the scientific community so long as
# proper attribution is given to the journal article from which the
# data were obtained.
#
data_9007362
loop_
_publ_author_name
'Bindi, L.'
'Bonazzi, P.'
_publ_section_title
;
 Incommensurate-normal phase transition in natural melilite:
 an in situ high-temperature X-ray single-crystal study
 Sample: San Venanzo, Italy; T = 359 K
 Note: xO1 and yO1 corrected by authors
;
_journal_name_full               'Physics and Chemistry of Minerals'
_journal_page_first              89
_journal_page_last               96
_journal_paper_doi               10.1007/s00269-004-0439-2
_journal_volume                  32
_journal_year                    2005
_chemical_formula_sum
'Al0.09 Ca1.87 K0.02 Mg0.96 Na0.1 O7 Si1.98 Sr0.02'
_chemical_name_mineral           Melilite
_space_group_IT_number           113
_symmetry_space_group_name_Hall  'P -4 2ab'
_symmetry_space_group_name_H-M   'P -4 21 m'
_cell_angle_alpha                90
_cell_angle_beta                 90
_cell_angle_gamma                90
_cell_length_a                   7.832
_cell_length_b                   7.832
_cell_length_c                   5.003
_cell_volume                     306.885
_diffrn_ambient_temperature      359
_exptl_crystal_density_diffrn    2.956
_cod_original_formula_sum
'Ca1.87 Na.1 Sr.02 K.02 Mg.96 Al.09 Si1.98 O7'
_cod_database_code               9007362
loop_
_symmetry_equiv_pos_as_xyz
x,y,z
1/2-y,1/2-x,z
y,-x,-z
1/2-x,1/2+y,-z
-x,-y,z
1/2+y,1/2+x,z
-y,x,-z
1/2+x,1/2-y,-z
loop_
_atom_site_label
_atom_site_fract_x
_atom_site_fract_y
_atom_site_fract_z
_atom_site_occupancy
_atom_site_U_iso_or_equiv
CaX 0.33200 0.16800 0.50570 0.93500 0.05150
NaX 0.33200 0.16800 0.50570 0.05000 0.05150
SrX 0.33200 0.16800 0.50570 0.01000 0.05150
KX 0.33200 0.16800 0.50570 0.01000 0.05150
MgT1 0.00000 0.00000 0.00000 0.96000 0.04500
AlT1 0.00000 0.00000 0.00000 0.07000 0.04500
SiT2 0.14010 0.35990 0.93450 0.99000 0.04340
AlT2 0.14010 0.35990 0.93450 0.01000 0.04340
O1 0.50000 0.00000 0.18320 1.00000 0.05520
O2 0.14070 0.35930 0.25370 1.00000 0.05500
O3 0.08140 0.18740 0.78690 1.00000 0.05420
