#------------------------------------------------------------------------------
#$Date: 2016-02-16 14:49:47 +0200 (Tue, 16 Feb 2016) $
#$Revision: 176465 $
#$URL: svn://www.crystallography.net/cod/cif/9/00/73/9007392.cif $
#------------------------------------------------------------------------------
#
# This file is available in the Crystallography Open Database (COD),
# http://www.crystallography.net/. The original data for this entry
# were provided the American Mineralogist Crystal Structure Database,
# http://rruff.geo.arizona.edu/AMS/amcsd.php
#
# The file may be used within the scientific community so long as
# proper attribution is given to the journal article from which the
# data were obtained.
#
data_9007392
loop_
_publ_author_name
'Ellemann-Olesen R'
'Malcherek, T.'
_publ_section_title
;
 The structure of SrTiOGeO4 and its solid solution with CaTiOGeO4
 Note: titanite-type structure
 Sample: Sr70
;
_journal_name_full               'Physics and Chemistry of Minerals'
_journal_page_first              531
_journal_page_last               545
_journal_paper_doi               10.1007/s00269-005-0019-0
_journal_volume                  32
_journal_year                    2005
_chemical_formula_structural     Ca.3Sr.7TiOGeO4
_chemical_formula_sum            'Ca0.3 Ge O5 Sr0.699 Ti'
_space_group_IT_number           14
_symmetry_space_group_name_Hall  '-P 2yab'
_symmetry_space_group_name_H-M   'P 1 21/a 1'
_cell_angle_alpha                90
_cell_angle_beta                 113.593
_cell_angle_gamma                90
_cell_length_a                   7.1916
_cell_length_b                   9.0134
_cell_length_c                   6.7387
_cell_volume                     400.296
_exptl_crystal_density_diffrn    4.542
_cod_original_formula_sum        'Sr.699 Ca.3 Ti Ge O5'
_cod_database_code               9007392
loop_
_symmetry_equiv_pos_as_xyz
x,y,z
1/2+x,1/2-y,z
1/2-x,1/2+y,-z
-x,-y,-z
loop_
_atom_site_label
_atom_site_fract_x
_atom_site_fract_y
_atom_site_fract_z
_atom_site_occupancy
_atom_site_U_iso_or_equiv
Sr 0.24420 0.41940 0.25390 0.69900 0.02400
Ca 0.24420 0.41940 0.25390 0.30000 0.02400
Ti 0.51700 0.25940 0.75410 1.00000 0.01600
Ge 0.74840 0.43580 0.25560 1.00000 0.01200
O1 0.75650 0.30750 0.76820 1.00000 0.01100
O2A 0.90410 0.32170 0.44820 1.00000 0.01100
O2B 0.07710 0.19860 0.06930 1.00000 0.01100
O3A 0.38670 0.45940 0.64100 1.00000 0.01100
O3B 0.60490 0.04470 0.84770 1.00000 0.01100
