#------------------------------------------------------------------------------
#$Date: 2017-10-06 19:24:22 +0300 (Fri, 06 Oct 2017) $
#$Revision: 201816 $
#$URL: file:///home/coder/svn-repositories/cod/cif/9/00/71/9007162.cif $
#------------------------------------------------------------------------------
#
# This file is available in the Crystallography Open Database (COD),
# http://www.crystallography.net/. The original data for this entry
# were provided the American Mineralogist Crystal Structure Database,
# http://rruff.geo.arizona.edu/AMS/amcsd.php
#
# The file may be used within the scientific community so long as
# proper attribution is given to the journal article from which the
# data were obtained.
#
data_9007162
loop_
_publ_author_name
'Angel, R. J.'
'Shaw, C. S. J.'
'Gibbs, G. V.'
_publ_section_title
;
 Compression mechanisms of coesite
 Sample: X1P0, in cell, P = 0.0001 GPa
;
_journal_name_full               'Physics and Chemistry of Minerals'
_journal_page_first              167
_journal_page_last               176
_journal_paper_doi               10.1007/s00269-003-0303-9
_journal_volume                  30
_journal_year                    2003
_chemical_formula_sum            'O2 Si'
_chemical_name_mineral           Coesite
_space_group_IT_number           15
_symmetry_space_group_name_Hall  '-C 2yc'
_symmetry_space_group_name_H-M   'C 1 2/c 1'
_cell_angle_alpha                90
_cell_angle_beta                 120.330
_cell_angle_gamma                90
_cell_length_a                   7.1366
_cell_length_b                   12.3723
_cell_length_c                   7.1749
_cell_volume                     546.808
_database_code_amcsd             0008747
_diffrn_ambient_pressure         100
_exptl_crystal_density_diffrn    2.919
_cod_original_formula_sum        'Si O2'
_cod_database_code               9007162
loop_
_symmetry_equiv_pos_as_xyz
x,y,z
1/2+x,1/2+y,z
x,-y,1/2+z
1/2+x,1/2-y,1/2+z
-x,y,1/2-z
1/2-x,1/2+y,1/2-z
-x,-y,-z
1/2-x,1/2-y,-z
loop_
_atom_site_aniso_label
_atom_site_aniso_U_11
_atom_site_aniso_U_22
_atom_site_aniso_U_33
_atom_site_aniso_U_12
_atom_site_aniso_U_13
_atom_site_aniso_U_23
Si1 0.00557 0.00434 0.00583 -0.00147 0.00330 -0.00097
Si2 0.00638 0.00737 0.00408 -0.00046 0.00336 -0.00008
O1 0.00827 0.00931 0.00835 -0.00347 0.00329 -0.00311
O2 0.00923 0.00543 0.00855 0.00000 0.00522 0.00000
O3 0.00980 0.01086 0.00971 -0.00116 0.00657 -0.00116
O4 0.01249 0.01241 0.00505 -0.00193 0.00174 -0.00140
O5 0.00980 0.00310 0.01399 -0.00077 0.00580 -0.00078
loop_
_atom_site_label
_atom_site_fract_x
_atom_site_fract_y
_atom_site_fract_z
_atom_site_U_iso_or_equiv
Si1 0.14051 0.10831 0.07236 0.00507
Si2 0.50679 0.15828 0.54093 0.00561
O1 0.00000 0.00000 0.00000 0.00912
O2 0.50000 0.11650 0.75000 0.00735
O3 0.26620 0.12330 0.94110 0.00925
O4 0.31100 0.10390 0.32750 0.01102
O5 0.01750 0.21240 0.47870 0.00899
loop_
_cod_related_entry_id
_cod_related_entry_database
_cod_related_entry_code
1 AMCSD 0008747
