#------------------------------------------------------------------------------
#$Date: 2017-10-14 23:18:49 +0300 (Sat, 14 Oct 2017) $
#$Revision: 202019 $
#$URL: file:///home/coder/svn-repositories/cod/cif/9/00/75/9007542.cif $
#------------------------------------------------------------------------------
#
# This file is available in the Crystallography Open Database (COD),
# http://www.crystallography.net/. The original data for this entry
# were provided the American Mineralogist Crystal Structure Database,
# http://rruff.geo.arizona.edu/AMS/amcsd.php
#
# The file may be used within the scientific community so long as
# proper attribution is given to the journal article from which the
# data were obtained.
#
data_9007542
loop_
_publ_author_name
'Baur, W. H.'
'Khan, A. A.'
_publ_section_title
;
 Rutile-type compounds. IV.
 SiO2, GeO2 and a comparison with other rutile-type structures
 Note: data from Boman (1970)
;
_journal_issue                   11
_journal_name_full               'Acta Crystallographica, Section B'
_journal_page_first              2133
_journal_page_last               2139
_journal_paper_doi               10.1107/S0567740871005466
_journal_volume                  27
_journal_year                    1971
_chemical_formula_structural     OsO2
_chemical_formula_sum            'O2 Os'
_space_group_IT_number           136
_symmetry_space_group_name_Hall  '-P 4n 2n'
_symmetry_space_group_name_H-M   'P 42/m n m'
_cell_angle_alpha                90
_cell_angle_beta                 90
_cell_angle_gamma                90
_cell_length_a                   4.5003
_cell_length_b                   4.5003
_cell_length_c                   3.1839
_cell_volume                     64.483
_exptl_crystal_density_diffrn    11.444
_cod_original_formula_sum        'Os O2'
_cod_database_code               9007542
loop_
_symmetry_equiv_pos_as_xyz
x,y,z
-y,-x,z
y,x,-z
1/2+y,1/2-x,1/2-z
1/2-y,1/2+x,1/2+z
1/2+x,1/2-y,1/2+z
1/2-x,1/2+y,1/2-z
x,y,-z
-x,-y,z
y,x,z
-y,-x,-z
1/2-y,1/2+x,1/2-z
1/2+y,1/2-x,1/2+z
1/2-x,1/2+y,1/2+z
1/2+x,1/2-y,1/2-z
-x,-y,-z
loop_
_atom_site_label
_atom_site_fract_x
_atom_site_fract_y
_atom_site_fract_z
Os 0.00000 0.00000 0.00000
O 0.30810 0.30810 0.00000
loop_
_cod_related_entry_id
_cod_related_entry_database
_cod_related_entry_code
1 ChemSpider 10618825
