#------------------------------------------------------------------------------
#$Date: 2016-02-16 14:49:47 +0200 (Tue, 16 Feb 2016) $
#$Revision: 176465 $
#$URL: svn://www.crystallography.net/cod/cif/9/00/84/9008445.cif $
#------------------------------------------------------------------------------
#
# This file is available in the Crystallography Open Database (COD),
# http://www.crystallography.net/. The original data for this entry
# were provided the American Mineralogist Crystal Structure Database,
# http://rruff.geo.arizona.edu/AMS/amcsd.php
#
# The file may be used within the scientific community so long as
# proper attribution is given to the journal article from which the
# data were obtained.
#
data_9008445
loop_
_publ_author_name
'Redhammer, G. J.'
'Roth, G.'
_publ_section_title
;
 Structural variation and crystal chemistry of LiMe3+Si2O6 clinopyroxenes
 Me3+ = Al, Ga, Cr, V, Fe, Sc, and In
 Sample: ScFe90
;
_journal_name_full               'Zeitschrift fur Kristallographie'
_journal_page_first              278
_journal_page_last               294
_journal_paper_doi               10.1524/zkri.219.5.278.32748
_journal_volume                  219
_journal_year                    2004
_chemical_formula_structural     LiFe.87Sc.13Si2O6
_chemical_formula_sum            'Fe0.873 Li O6 Sc0.127 Si2'
_space_group_IT_number           15
_symmetry_space_group_name_Hall  '-C 2yc'
_symmetry_space_group_name_H-M   'C 1 2/c 1'
_cell_angle_alpha                90
_cell_angle_beta                 110.15
_cell_angle_gamma                90
_cell_length_a                   9.678
_cell_length_b                   8.697
_cell_length_c                   5.300
_cell_volume                     418.795
_exptl_crystal_density_diffrn    3.387
_cod_original_formula_sum        'Li (Fe.873 Sc.127) Si2 O6'
_cod_database_code               9008445
loop_
_symmetry_equiv_pos_as_xyz
x,y,z
1/2+x,1/2+y,z
x,-y,1/2+z
1/2+x,1/2-y,1/2+z
-x,y,1/2-z
1/2-x,1/2+y,1/2-z
-x,-y,-z
1/2-x,1/2-y,-z
loop_
_atom_site_label
_atom_site_fract_x
_atom_site_fract_y
_atom_site_fract_z
_atom_site_occupancy
_atom_site_U_iso_or_equiv
Li 0.00000 0.26050 0.25000 1.00000 0.01820
Fe 0.00000 0.89809 0.25000 0.87300 0.00400
Sc 0.00000 0.89809 0.25000 0.12700 0.00400
Si 0.29646 0.08933 0.26642 1.00000 0.00450
O1 0.11620 0.08460 0.14990 1.00000 0.00590
O2 0.36670 0.25780 0.32670 1.00000 0.00970
O3 0.35580 -0.00100 0.05500 1.00000 0.01050
