#------------------------------------------------------------------------------
#$Date: 2017-10-14 23:18:49 +0300 (Sat, 14 Oct 2017) $
#$Revision: 202019 $
#$URL: file:///home/coder/svn-repositories/cod/cif/9/00/80/9008095.cif $
#------------------------------------------------------------------------------
#
# This file is available in the Crystallography Open Database (COD),
# http://www.crystallography.net/. The original data for this entry
# were provided the American Mineralogist Crystal Structure Database,
# http://rruff.geo.arizona.edu/AMS/amcsd.php
#
# The file may be used within the scientific community so long as
# proper attribution is given to the journal article from which the
# data were obtained.
#
data_9008095
loop_
_publ_author_name
'Saalfeld, H.'
_publ_section_title
;
 Strukturuntersuchungen im system Al2O3-Cr2O3
;
_journal_name_full               'Zeitschrift fur Kristallographie '
_journal_page_first              342
_journal_page_last               348
_journal_volume                  120
_journal_year                    1964
_chemical_formula_sum            'Cr2 O3'
_chemical_name_mineral           Eskolaite
_space_group_IT_number           167
_symmetry_space_group_name_Hall  '-P 3* 2n'
_symmetry_space_group_name_H-M   'R -3 c :R'
_cell_angle_alpha                55.13
_cell_angle_beta                 55.13
_cell_angle_gamma                55.13
_cell_length_a                   5.359
_cell_length_b                   5.359
_cell_length_c                   5.359
_cell_volume                     96.502
_exptl_crystal_density_diffrn    5.231
_cod_original_sg_symbol_H-M      'R -3 c'
_cod_database_code               9008095
loop_
_symmetry_equiv_pos_as_xyz
x,y,z
1/2-x,1/2-z,1/2-y
-z,-x,-y
1/2+y,1/2+x,1/2+z
y,z,x
1/2-z,1/2-y,1/2-x
-x,-y,-z
1/2+x,1/2+z,1/2+y
z,x,y
1/2-y,1/2-x,1/2-z
-y,-z,-x
1/2+z,1/2+y,1/2+x
loop_
_atom_site_label
_atom_site_fract_x
_atom_site_fract_y
_atom_site_fract_z
Cr 0.15200 0.15200 0.15200
O -0.05700 0.25000 0.55700
loop_
_cod_related_entry_id
_cod_related_entry_database
_cod_related_entry_code
1 ChemSpider 145428
