#------------------------------------------------------------------------------
#$Date: 2016-02-16 14:49:47 +0200 (Tue, 16 Feb 2016) $
#$Revision: 176465 $
#$URL: svn://www.crystallography.net/cod/cif/9/00/82/9008225.cif $
#------------------------------------------------------------------------------
#
# This file is available in the Crystallography Open Database (COD),
# http://www.crystallography.net/. The original data for this entry
# were provided the American Mineralogist Crystal Structure Database,
# http://rruff.geo.arizona.edu/AMS/amcsd.php
#
# The file may be used within the scientific community so long as
# proper attribution is given to the journal article from which the
# data were obtained.
#
data_9008225
loop_
_publ_author_name
'Peacor, D. R.'
_publ_section_title
;
 High-temperature single-crystal study of the cristobalite inversion
 Note: Cell has been corrected
 Sample: T = 65 C
 Locality: Ellora Caves, Hyderabad State, India
;
_journal_name_full               'Zeitschrift fur Kristallographie'
_journal_page_first              274
_journal_page_last               298
_journal_volume                  138
_journal_year                    1973
_chemical_formula_sum            'O2 Si'
_chemical_name_mineral           Cristobalite
_space_group_IT_number           92
_symmetry_space_group_name_Hall  'P 4abw 2nw'
_symmetry_space_group_name_H-M   'P 41 21 2'
_cell_angle_alpha                90
_cell_angle_beta                 90
_cell_angle_gamma                90
_cell_length_a                   4.982
_cell_length_b                   4.982
_cell_length_c                   6.963
_cell_volume                     172.824
_diffrn_ambient_temperature      338.15
_exptl_crystal_density_diffrn    2.309
_cod_original_formula_sum        'Si O2'
_cod_database_code               9008225
loop_
_symmetry_equiv_pos_as_xyz
x,y,z
y,x,-z
1/2-y,1/2+x,1/4+z
1/2-x,1/2+y,1/4-z
-x,-y,1/2+z
-y,-x,1/2-z
1/2+y,1/2-x,3/4+z
1/2+x,1/2-y,3/4-z
loop_
_atom_site_aniso_label
_atom_site_aniso_U_11
_atom_site_aniso_U_22
_atom_site_aniso_U_33
_atom_site_aniso_U_12
_atom_site_aniso_U_13
_atom_site_aniso_U_23
Si 0.01051 0.01051 0.01065 0.00027 0.00138 -0.00138
O 0.03697 0.01011 0.01844 -0.00072 0.00642 0.00392
loop_
_atom_site_label
_atom_site_fract_x
_atom_site_fract_y
_atom_site_fract_z
Si 0.29897 0.29897 0.00000
O 0.23989 0.10347 0.17813
