#------------------------------------------------------------------------------
#$Date: 2016-02-16 14:49:47 +0200 (Tue, 16 Feb 2016) $
#$Revision: 176465 $
#$URL: svn://www.crystallography.net/cod/cif/9/00/81/9008110.cif $
#------------------------------------------------------------------------------
#
# This file is available in the Crystallography Open Database (COD),
# http://www.crystallography.net/. The original data for this entry
# were provided the American Mineralogist Crystal Structure Database,
# http://rruff.geo.arizona.edu/AMS/amcsd.php
#
# The file may be used within the scientific community so long as
# proper attribution is given to the journal article from which the
# data were obtained.
#
data_9008110
loop_
_publ_author_name
'Dollase, W. A.'
_publ_section_title
;
 Reinvestigation of the structure of low cristobalite
 Locality: Ellora, Hyderabad, India
;
_journal_name_full               'Zeitschrift fur Kristallographie'
_journal_page_first              369
_journal_page_last               377
_journal_volume                  121
_journal_year                    1965
_chemical_formula_sum            'O2 Si'
_chemical_name_mineral           Cristobalite
_space_group_IT_number           92
_symmetry_space_group_name_Hall  'P 4abw 2nw'
_symmetry_space_group_name_H-M   'P 41 21 2'
_cell_angle_alpha                90
_cell_angle_beta                 90
_cell_angle_gamma                90
_cell_length_a                   4.978
_cell_length_b                   4.978
_cell_length_c                   6.948
_cell_volume                     172.175
_exptl_crystal_density_diffrn    2.318
_cod_original_formula_sum        'Si O2'
_cod_database_code               9008110
loop_
_symmetry_equiv_pos_as_xyz
x,y,z
y,x,-z
1/2-y,1/2+x,1/4+z
1/2-x,1/2+y,1/4-z
-x,-y,1/2+z
-y,-x,1/2-z
1/2+y,1/2-x,3/4+z
1/2+x,1/2-y,3/4-z
loop_
_atom_site_label
_atom_site_fract_x
_atom_site_fract_y
_atom_site_fract_z
_atom_site_U_iso_or_equiv
Si 0.30004 0.30004 0.00000 0.01051
O 0.23976 0.10324 0.17844 0.01963
