#------------------------------------------------------------------------------
#$Date: 2016-02-16 14:49:47 +0200 (Tue, 16 Feb 2016) $
#$Revision: 176465 $
#$URL: svn://www.crystallography.net/cod/cif/9/00/97/9009762.cif $
#------------------------------------------------------------------------------
#
# This file is available in the Crystallography Open Database (COD),
# http://www.crystallography.net/. The original data for this entry
# were provided the American Mineralogist Crystal Structure Database,
# http://rruff.geo.arizona.edu/AMS/amcsd.php
#
# The file may be used within the scientific community so long as
# proper attribution is given to the journal article from which the
# data were obtained.
#
data_9009762
loop_
_publ_author_name
'Chakoumakos, B. C.'
'Fernandez-Baca J A'
'Boatner, L. A.'
_publ_section_title
;
 Refinement of the structures of the layer silicates MCuSi4O10 (M=Ca,Sr,Ba)
 by Rietveld analysis of neutron powder diffraction data
 Note: gillespite structure
 Locality: synthetic
;
_journal_name_full               'Journal of Solid State Chemistry'
_journal_page_first              105
_journal_page_last               113
_journal_paper_doi               10.1006/jssc.1993.1083
_journal_volume                  103
_journal_year                    1993
_chemical_formula_sum            'Ca Cu O10 Si4'
_chemical_name_mineral           Cuprorivaite
_space_group_IT_number           130
_symmetry_space_group_name_Hall  '-P 4a 2ac'
_symmetry_space_group_name_H-M   'P 4/n c c :2'
_cell_angle_alpha                90
_cell_angle_beta                 90
_cell_angle_gamma                90
_cell_length_a                   7.3017
_cell_length_b                   7.3017
_cell_length_c                   15.1303
_cell_volume                     806.669
_exptl_crystal_density_diffrn    3.096
_cod_original_sg_symbol_H-M      'P 4/n c c'
_cod_original_formula_sum        'Ca Cu Si4 O10'
_cod_database_code               9009762
loop_
_symmetry_equiv_pos_as_xyz
x,y,z
1/2-y,1/2-x,1/2+z
1/2+y,1/2+x,1/2-z
1/2+y,-x,-z
1/2-y,x,z
x,1/2-y,1/2+z
-x,1/2+y,1/2-z
1/2+x,1/2+y,-z
1/2-x,1/2-y,z
y,x,1/2+z
-y,-x,1/2-z
-y,1/2+x,-z
y,1/2-x,z
1/2-x,y,1/2+z
1/2+x,-y,1/2-z
-x,-y,-z
loop_
_atom_site_aniso_label
_atom_site_aniso_U_11
_atom_site_aniso_U_22
_atom_site_aniso_U_33
_atom_site_aniso_U_12
_atom_site_aniso_U_13
_atom_site_aniso_U_23
Ca 0.00300 0.00300 0.02300 0.00000 0.00000 0.00000
Cu 0.00550 0.00550 0.00600 0.00000 0.00000 0.00000
Si 0.00400 0.00500 0.00600 -0.00020 -0.00100 0.00020
O1 0.02800 0.02800 0.00100 -0.00400 0.00440 -0.00440
O2 0.00020 0.01270 0.01700 -0.00190 0.00160 0.00430
O3 0.00590 0.00580 0.01500 0.00310 -0.00400 0.00000
loop_
_atom_site_label
_atom_site_fract_x
_atom_site_fract_y
_atom_site_fract_z
_atom_site_U_iso_or_equiv
Ca 0.25000 0.75000 0.00000 0.00900
Cu 0.25000 0.25000 0.08190 0.00500
Si 0.50360 0.92670 0.14750 0.00500
O1 0.46080 0.96080 0.25000 0.01900
O2 0.70760 0.00250 0.12680 0.01000
O3 0.35330 0.00680 0.08210 0.00900
