#------------------------------------------------------------------------------
#$Date: 2016-02-16 14:49:47 +0200 (Tue, 16 Feb 2016) $
#$Revision: 176465 $
#$URL: svn://www.crystallography.net/cod/cif/9/00/93/9009367.cif $
#------------------------------------------------------------------------------
#
# This file is available in the Crystallography Open Database (COD),
# http://www.crystallography.net/. The original data for this entry
# were provided the American Mineralogist Crystal Structure Database,
# http://rruff.geo.arizona.edu/AMS/amcsd.php
#
# The file may be used within the scientific community so long as
# proper attribution is given to the journal article from which the
# data were obtained.
#
data_9009367
loop_
_publ_author_name
'Muller, G.'
'Paulus, H.'
'Stiefel, J.'
_publ_section_title
;
 Synthesis and structure of beta-quartz type
 Na0.5H0.5AlSi206 as compared to LiAlSi206
 Locality: synthetic
 Note: stuffed beta-quartz type structure
;
_journal_name_full               'Neues Jahrbuch fur Mineralogie, Monatshefte'
_journal_page_first              493
_journal_page_last               503
_journal_volume                  1990
_journal_year                    1990
_chemical_formula_sum            'Al0.333 Li0.333 O2 Si0.667'
_chemical_name_mineral           Virgilite
_space_group_IT_number           180
_symmetry_space_group_name_Hall  'P 62 2 (0 0 4)'
_symmetry_space_group_name_H-M   'P 62 2 2'
_cell_angle_alpha                90
_cell_angle_beta                 90
_cell_angle_gamma                120
_cell_length_a                   5.226
_cell_length_b                   5.226
_cell_length_c                   5.465
_cell_volume                     129.259
_exptl_crystal_density_diffrn    2.391
_cod_original_formula_sum        'Li.333 (Al.333 Si.667) O2'
_cod_database_code               9009367
loop_
_symmetry_equiv_pos_as_xyz
x,y,z
x,x-y,1/3-z
x-y,x,1/3+z
y,x,2/3-z
-y,x-y,2/3+z
-x+y,y,-z
-x,-y,z
-x,-x+y,1/3-z
-x+y,-x,1/3+z
-y,-x,2/3-z
y,-x+y,2/3+z
x-y,-y,-z
loop_
_atom_site_aniso_label
_atom_site_aniso_U_11
_atom_site_aniso_U_22
_atom_site_aniso_U_33
_atom_site_aniso_U_12
_atom_site_aniso_U_13
_atom_site_aniso_U_23
Li 0.01200 0.02100 0.07000 0.01100 0.00000 0.00000
Al 0.01100 0.00980 0.01170 0.00490 0.00000 0.00000
Si 0.01100 0.00980 0.01170 0.00490 0.00000 0.00000
O 0.02700 0.02790 0.03380 0.01400 0.01300 0.00000
loop_
_atom_site_label
_atom_site_fract_x
_atom_site_fract_y
_atom_site_fract_z
_atom_site_occupancy
_atom_site_U_iso_or_equiv
Li 0.00000 0.00000 0.00000 0.33333 0.03306
Al 0.50000 0.00000 0.00000 0.33333 0.01102
Si 0.50000 0.00000 0.00000 0.66667 0.01102
O 0.20300 0.40600 0.50000 1.00000 0.02938
