#------------------------------------------------------------------------------
#$Date: 2016-02-16 14:49:47 +0200 (Tue, 16 Feb 2016) $
#$Revision: 176465 $
#$URL: svn://www.crystallography.net/cod/cif/9/01/04/9010468.cif $
#------------------------------------------------------------------------------
#
# This file is available in the Crystallography Open Database (COD),
# http://www.crystallography.net/. The original data for this entry
# were provided the American Mineralogist Crystal Structure Database,
# http://rruff.geo.arizona.edu/AMS/amcsd.php
#
# The file may be used within the scientific community so long as
# proper attribution is given to the journal article from which the
# data were obtained.
#
data_9010468
loop_
_publ_author_name
'Nestola, F.'
'Ballaran, T. B.'
'Liebske, C.'
'Thompson, R.'
'Downs, R. T.'
_publ_section_title
;
 The effect of the hedenbergitic substitution on the compressibility
 of jadeite
 Locality: Synthetic
 Sample: Jd0Hd100 at P = 0 GPa
;
_journal_name_full               'American Mineralogist'
_journal_page_first              1005
_journal_page_last               1013
_journal_paper_doi               10.2138/am.2008.2773
_journal_volume                  93
_journal_year                    2008
_chemical_formula_sum            'Ca Fe O6 Si2'
_chemical_name_mineral           Jadeite
_space_group_IT_number           15
_symmetry_space_group_name_Hall  '-C 2yc'
_symmetry_space_group_name_H-M   'C 1 2/c 1'
_cell_angle_alpha                90
_cell_angle_beta                 104.862
_cell_angle_gamma                90
_cell_length_a                   9.8447
_cell_length_b                   9.0234
_cell_length_c                   5.2509
_cell_volume                     450.847
_diffrn_ambient_pressure         0
_exptl_crystal_density_diffrn    3.655
_cod_original_formula_sum        'Ca Fe Si2 O6'
_cod_database_code               9010468
loop_
_symmetry_equiv_pos_as_xyz
x,y,z
1/2+x,1/2+y,z
x,-y,1/2+z
1/2+x,1/2-y,1/2+z
-x,y,1/2-z
1/2-x,1/2+y,1/2-z
-x,-y,-z
1/2-x,1/2-y,-z
loop_
_atom_site_label
_atom_site_fract_x
_atom_site_fract_y
_atom_site_fract_z
_atom_site_U_iso_or_equiv
CaM2 0.00000 0.30010 0.25000 0.00830
Fe2+M1 0.00000 0.90740 0.25000 0.00650
SiT 0.28770 0.09253 0.23250 0.00520
O1 0.11930 0.09070 0.15220 0.00830
O2 0.36240 0.24640 0.32450 0.00890
O3 0.35020 0.01950 0.99380 0.00900
