#------------------------------------------------------------------------------
#$Date: 2016-02-16 14:49:47 +0200 (Tue, 16 Feb 2016) $
#$Revision: 176465 $
#$URL: svn://www.crystallography.net/cod/cif/9/01/08/9010895.cif $
#------------------------------------------------------------------------------
#
# This file is available in the Crystallography Open Database (COD),
# http://www.crystallography.net/. The original data for this entry
# were provided the American Mineralogist Crystal Structure Database,
# http://rruff.geo.arizona.edu/AMS/amcsd.php
#
# The file may be used within the scientific community so long as
# proper attribution is given to the journal article from which the
# data were obtained.
#
data_9010895
loop_
_publ_author_name
'Gatta, G. D.'
'Rinaldi, R.'
'Knight, K. S.'
'Molin, G.'
'Artioli, G.'
_publ_section_title
;
 High temperature structural and thermoelastic behaviour of mantle
 orthopyroxene: an in situ neutron powder diffraction study
 Sample: T = 1,025 C
;
_journal_name_full               'Physics and Chemistry of Minerals'
_journal_page_first              185
_journal_page_last               200
_journal_paper_doi               10.1007/s00269-006-0138-2
_journal_volume                  34
_journal_year                    2007
_chemical_formula_sum            'Al0.03 Fe0.15 Mg1.82 O6 Si1.97'
_chemical_name_mineral           Enstatite
_space_group_IT_number           61
_symmetry_space_group_name_Hall  '-P 2ac 2ab'
_symmetry_space_group_name_H-M   'P b c a'
_cell_angle_alpha                90
_cell_angle_beta                 90
_cell_angle_gamma                90
_cell_length_a                   18.4125
_cell_length_b                   8.9408
_cell_length_c                   5.2577
_cell_volume                     865.536
_exptl_crystal_density_diffrn    3.142
_cod_original_formula_sum        'Mg1.82 Fe.15 Si1.97 Al.03 O6'
_cod_database_code               9010895
loop_
_symmetry_equiv_pos_as_xyz
x,y,z
x,1/2-y,1/2+z
-x,1/2+y,1/2-z
1/2-x,1/2+y,z
1/2+x,1/2-y,-z
1/2+x,y,1/2-z
1/2-x,-y,1/2+z
-x,-y,-z
loop_
_atom_site_label
_atom_site_fract_x
_atom_site_fract_y
_atom_site_fract_z
_atom_site_occupancy
_atom_site_U_iso_or_equiv
MgM1 0.38060 0.65160 0.88290 0.92900 0.03836
FeM1 0.38060 0.65160 0.88290 0.06100 0.03836
MgM2 0.37380 0.48530 0.36430 0.89100 0.04045
FeM2 0.37380 0.48530 0.36430 0.08900 0.04045
SiA 0.27080 0.34710 0.06030 1.00000 0.01337
SiB 0.47450 0.33870 0.77810 0.97000 0.01337
AlB 0.47450 0.33870 0.77810 0.03000 0.01337
O1A 0.18490 0.34160 0.04810 1.00000 0.01520
O1B 0.56240 0.34000 0.78880 1.00000 0.01520
O2A 0.31050 0.50570 0.04520 1.00000 0.01520
O2B 0.43190 0.49220 0.70180 1.00000 0.01520
O3A 0.30230 0.23400 -0.17010 1.00000 0.01520
O3B 0.44980 0.20410 0.58180 1.00000 0.01520
