#------------------------------------------------------------------------------
#$Date: 2016-02-16 14:49:47 +0200 (Tue, 16 Feb 2016) $
#$Revision: 176465 $
#$URL: svn://www.crystallography.net/cod/cif/9/01/00/9010088.cif $
#------------------------------------------------------------------------------
#
# This file is available in the Crystallography Open Database (COD),
# http://www.crystallography.net/. The original data for this entry
# were provided the American Mineralogist Crystal Structure Database,
# http://rruff.geo.arizona.edu/AMS/amcsd.php
#
# The file may be used within the scientific community so long as
# proper attribution is given to the journal article from which the
# data were obtained.
#
data_9010088
loop_
_publ_author_name
'Redhammer, G. J.'
'Amthauer, G.'
'Roth, G.'
'Tippelt, G.'
'Lottermoser, W.'
_publ_section_title
;Single crystal X-ray diffraction and temperature dependent 57Fe Mossbauer
 spectroscopy on the hedenbergite - aegirine (Ca,Na)(Fe2+,Fe3+)Si2O6 solid
 solution Locality: synthetic Sample: Ae701, T = 298 K
;
_journal_name_full               'American Mineralogist'
_journal_page_first              1271
_journal_page_last               1292
_journal_paper_doi               10.2138/am.2006.2173
_journal_volume                  91
_journal_year                    2006
_chemical_formula_sum            'Ca0.289 Fe Na0.711 O6 Si2'
_chemical_name_mineral           Aegirine
_space_group_IT_number           15
_symmetry_space_group_name_Hall  '-C 2yc'
_symmetry_space_group_name_H-M   'C 1 2/c 1'
_cell_angle_alpha                90
_cell_angle_beta                 106.637
_cell_angle_gamma                90
_cell_length_a                   9.6993
_cell_length_b                   8.8579
_cell_length_c                   5.2813
_cell_volume                     434.750
_diffrn_ambient_temperature      298
_exptl_crystal_density_diffrn    3.605
_cod_original_formula_sum        '(Na.711 Ca.289) Fe Si2 O6'
_cod_database_code               9010088
loop_
_symmetry_equiv_pos_as_xyz
x,y,z
1/2+x,1/2+y,z
x,-y,1/2+z
1/2+x,1/2-y,1/2+z
-x,y,1/2-z
1/2-x,1/2+y,1/2-z
-x,-y,-z
1/2-x,1/2-y,-z
loop_
_atom_site_label
_atom_site_fract_x
_atom_site_fract_y
_atom_site_fract_z
_atom_site_occupancy
_atom_site_U_iso_or_equiv
Na2 0.00000 0.30090 0.25000 0.71100 0.01080
Ca2 0.00000 0.30090 0.25000 0.28900 0.01080
Fe3+1 0.00000 0.90120 0.25000 0.71100 0.00400
Fe2+1 0.00000 0.90120 0.25000 0.28900 0.00400
Si 0.28940 0.09040 0.23400 1.00000 0.00290
O1 0.11520 0.08180 0.14130 1.00000 0.00560
O2 0.35860 0.25320 0.30780 1.00000 0.00760
O3 0.35140 0.01180 0.00740 1.00000 0.00550
