#------------------------------------------------------------------------------
#$Date: 2016-02-16 14:49:47 +0200 (Tue, 16 Feb 2016) $
#$Revision: 176465 $
#$URL: svn://www.crystallography.net/cod/cif/9/01/09/9010908.cif $
#------------------------------------------------------------------------------
#
# This file is available in the Crystallography Open Database (COD),
# http://www.crystallography.net/. The original data for this entry
# were provided the American Mineralogist Crystal Structure Database,
# http://rruff.geo.arizona.edu/AMS/amcsd.php
#
# The file may be used within the scientific community so long as
# proper attribution is given to the journal article from which the
# data were obtained.
#
data_9010908
loop_
_publ_author_name
'Kojitani, H.'
'Katsura, T.'
'Akaogi, M.'
_publ_section_title
;Aluminum substitution mechanisms in perovskite-type MgSiO3: an investigation
 by Rietveld analysis Sample: Nonstoichiometric with XAl = 0.05
;
_journal_name_full               'Physics and Chemistry of Minerals'
_journal_page_first              257
_journal_page_last               267
_journal_paper_doi               10.1007/s00269-007-0144-z
_journal_volume                  34
_journal_year                    2007
_chemical_formula_sum            'Al0.05 Mg0.99 O2.985 Si0.96'
_chemical_name_mineral           'Perovskite-type MgSiO3'
_space_group_IT_number           62
_symmetry_space_group_name_Hall  '-P 2c 2ab'
_symmetry_space_group_name_H-M   'P b n m'
_cell_angle_alpha                90
_cell_angle_beta                 90
_cell_angle_gamma                90
_cell_length_a                   4.7785
_cell_length_b                   4.9326
_cell_length_c                   6.9059
_cell_volume                     162.775
_exptl_crystal_density_diffrn    4.086
_cod_original_formula_sum        'Mg.99 Al.05 Si.96 O2.985'
_cod_database_code               9010908
loop_
_symmetry_equiv_pos_as_xyz
x,y,z
x,y,1/2-z
-x,-y,1/2+z
1/2+x,1/2-y,1/2+z
1/2-x,1/2+y,1/2-z
1/2-x,1/2+y,z
1/2+x,1/2-y,-z
-x,-y,-z
loop_
_atom_site_label
_atom_site_fract_x
_atom_site_fract_y
_atom_site_fract_z
_atom_site_occupancy
_atom_site_U_iso_or_equiv
Mg 0.98630 0.05300 0.25000 0.99000 0.01267
Al 0.98630 0.05300 0.25000 0.01000 0.01267
Si 0.00000 0.50000 0.00000 0.96000 0.00456
Al 0.00000 0.50000 0.00000 0.04000 0.00456
O1 0.10060 0.46620 0.25000 0.99500 0.01330
O2 0.69830 0.29580 0.05380 0.99500 0.01077
