#------------------------------------------------------------------------------
#$Date: 2016-02-16 14:49:47 +0200 (Tue, 16 Feb 2016) $
#$Revision: 176465 $
#$URL: svn://www.crystallography.net/cod/cif/9/01/05/9010526.cif $
#------------------------------------------------------------------------------
#
# This file is available in the Crystallography Open Database (COD),
# http://www.crystallography.net/. The original data for this entry
# were provided the American Mineralogist Crystal Structure Database,
# http://rruff.geo.arizona.edu/AMS/amcsd.php
#
# The file may be used within the scientific community so long as
# proper attribution is given to the journal article from which the
# data were obtained.
#
data_9010526
loop_
_publ_author_name
'Demartin, F.'
'Pilati, T.'
'Diella, V.'
'Gentile, P.'
'Gramaccioli, C. M.'
_publ_section_title
;
 A crystal-chemical investigation of alpine gadolinite
 Locality: Val Nalps, Switzerland
 Sample: 6
 Note: structure from ICSD
;
_journal_name_full               'The Canadian Mineralogist'
_journal_page_first              127
_journal_page_last               136
_journal_volume                  31
_journal_year                    1993
_chemical_formula_sum
'B0.66 Be1.34 Ca0.3 Dy0.28 Fe0.54 O10 Si2 Y1.42'
_chemical_name_mineral           Gadolinite-(Y)
_space_group_IT_number           14
_symmetry_space_group_name_Hall  '-P 2ybc'
_symmetry_space_group_name_H-M   'P 1 21/c 1'
_cell_angle_alpha                90
_cell_angle_beta                 90.48
_cell_angle_gamma                90
_cell_length_a                   4.746
_cell_length_b                   7.562
_cell_length_c                   9.903
_cell_volume                     355.399
_exptl_crystal_density_diffrn    4.199
_cod_original_formula_sum
'(Y1.42 Dy.28 Ca.3) (Be1.34 B.66) Fe.54 Si2 O10'
_cod_database_code               9010526
loop_
_symmetry_equiv_pos_as_xyz
x,y,z
x,1/2-y,1/2+z
-x,1/2+y,1/2-z
-x,-y,-z
loop_
_atom_site_aniso_label
_atom_site_aniso_U_11
_atom_site_aniso_U_22
_atom_site_aniso_U_33
_atom_site_aniso_U_12
_atom_site_aniso_U_13
_atom_site_aniso_U_23
Y 0.00677 0.00668 0.00639 -0.00085 -0.00008 -0.00021
Dy 0.00677 0.00668 0.00639 -0.00085 -0.00008 -0.00021
Ca 0.00677 0.00668 0.00639 -0.00085 -0.00008 -0.00021
Be 0.00500 0.00600 0.00500 0.00100 0.00000 0.00000
B 0.00500 0.00600 0.00500 0.00100 0.00000 0.00000
Fe 0.00760 0.00940 0.00720 0.00070 0.00050 -0.00020
Si 0.00610 0.00500 0.00590 -0.00040 0.00050 -0.00010
O1 0.00850 0.00800 0.01100 0.00060 0.00060 -0.00220
O2 0.01080 0.00930 0.00780 0.00100 -0.00150 -0.00100
O3 0.00890 0.01180 0.00820 -0.00110 0.00270 0.00220
O4 0.01130 0.00660 0.01060 0.00030 -0.00150 0.00310
O5 0.00830 0.01370 0.00950 -0.00160 0.00050 -0.00020
loop_
_atom_site_label
_atom_site_fract_x
_atom_site_fract_y
_atom_site_fract_z
_atom_site_occupancy
Y 0.00027 0.10773 0.33093 0.71000
Dy 0.00027 0.10773 0.33093 0.14000
Ca 0.00027 0.10773 0.33093 0.15000
Be 0.45340 0.41440 0.33620 0.67000
B 0.45340 0.41440 0.33620 0.33000
Fe 0.00000 0.00000 0.00000 0.54000
Si 0.52050 0.27630 0.07928 1.00000
O1 0.75990 0.41170 0.03170 1.00000
O2 0.32500 0.28790 0.45140 1.00000
O3 0.30740 0.34590 0.19670 1.00000
O4 0.68480 0.10530 0.14440 1.00000
O5 0.78930 0.41160 0.33220 1.00000
