#------------------------------------------------------------------------------
#$Date: 2016-02-16 14:49:47 +0200 (Tue, 16 Feb 2016) $
#$Revision: 176465 $
#$URL: svn://www.crystallography.net/cod/cif/9/01/01/9010180.cif $
#------------------------------------------------------------------------------
#
# This file is available in the Crystallography Open Database (COD),
# http://www.crystallography.net/. The original data for this entry
# were provided the American Mineralogist Crystal Structure Database,
# http://rruff.geo.arizona.edu/AMS/amcsd.php
#
# The file may be used within the scientific community so long as
# proper attribution is given to the journal article from which the
# data were obtained.
#
data_9010180
loop_
_publ_author_name
'Laurora, A.'
'Brigatti, M. F.'
'Mottana, A.'
'Malferrari, D.'
'Caprilli, E.'
_publ_section_title
;Crystal chemistry of trioctahedral micas in alkaline and subalkaline volcanic
 rocks: A case study from Mt. Sassetto (Tolfa district, Latium, central Italy)
 Locality: Mt. Sassetto, Tolfa district, Latium, Italy Sample: MS8(2) Note: 1M
 polytype
;
_journal_name_full               'American Mineralogist'
_journal_page_first              468
_journal_page_last               480
_journal_paper_doi               10.2138/am.2007.2339
_journal_volume                  92
_journal_year                    2007
_chemical_formula_sum
'Al1.34 Fe1.35 K0.92 Mg1.11 Na0.07 O12 Si2.72 Ti0.18'
_chemical_name_mineral           Annite
_space_group_IT_number           12
_symmetry_space_group_name_Hall  '-C 2y'
_symmetry_space_group_name_H-M   'C 1 2/m 1'
_cell_angle_alpha                90
_cell_angle_beta                 99.954
_cell_angle_gamma                90
_cell_length_a                   5.3213
_cell_length_b                   9.2034
_cell_length_c                   10.1048
_cell_volume                     487.424
_exptl_crystal_density_diffrn    3.087
_cod_original_formula_sum
'K.92 Na.07 Mg1.11 Fe1.35 Ti.18 Al1.34 Si2.72 O12'
_cod_database_code               9010180
loop_
_symmetry_equiv_pos_as_xyz
x,y,z
1/2+x,1/2+y,z
x,-y,z
1/2+x,1/2-y,z
-x,y,-z
1/2-x,1/2+y,-z
-x,-y,-z
1/2-x,1/2-y,-z
loop_
_atom_site_aniso_label
_atom_site_aniso_U_11
_atom_site_aniso_U_22
_atom_site_aniso_U_33
_atom_site_aniso_U_12
_atom_site_aniso_U_13
_atom_site_aniso_U_23
KA 0.02600 0.02700 0.03200 0.00000 0.00600 0.00000
NaA 0.02600 0.02700 0.03200 0.00000 0.00600 0.00000
MgM1 0.00800 0.00800 0.01500 0.00000 0.00300 0.00000
Fe3+M1 0.00800 0.00800 0.01500 0.00000 0.00300 0.00000
Fe2+M1 0.00800 0.00800 0.01500 0.00000 0.00300 0.00000
TiM1 0.00800 0.00800 0.01500 0.00000 0.00300 0.00000
AlM1 0.00800 0.00800 0.01500 0.00000 0.00300 0.00000
MgM2 0.00800 0.01500 0.01700 0.00000 0.00200 0.00000
Fe3+M2 0.00800 0.01500 0.01700 0.00000 0.00200 0.00000
Fe2+M2 0.00800 0.01500 0.01700 0.00000 0.00200 0.00000
TiM2 0.00800 0.01500 0.01700 0.00000 0.00200 0.00000
AlM2 0.00800 0.01500 0.01700 0.00000 0.00200 0.00000
AlT 0.00900 0.01000 0.01500 0.00000 0.00200 0.00000
SiT 0.00900 0.01000 0.01500 0.00000 0.00200 0.00000
O1 0.02000 0.02500 0.02200 -0.00600 0.00500 -0.00200
O2 0.02700 0.01900 0.02200 0.00000 0.00200 0.00000
O3 0.01300 0.01500 0.01800 0.00000 0.00200 0.00000
O4 0.01300 0.01700 0.01700 0.00000 0.00300 0.00000
loop_
_atom_site_label
_atom_site_fract_x
_atom_site_fract_y
_atom_site_fract_z
_atom_site_occupancy
_atom_site_U_iso_or_equiv
KA 0.00000 0.50000 0.00000 0.92000 0.02900
NaA 0.00000 0.50000 0.00000 0.07000 0.02900
MgM1 0.00000 0.00000 0.50000 0.37000 0.01000
Fe3+M1 0.00000 0.00000 0.50000 0.23000 0.01000
Fe2+M1 0.00000 0.00000 0.50000 0.22000 0.01000
TiM1 0.00000 0.00000 0.50000 0.06000 0.01000
AlM1 0.00000 0.00000 0.50000 0.02000 0.01000
MgM2 0.00000 0.34470 0.50000 0.37000 0.01300
Fe3+M2 0.00000 0.34470 0.50000 0.23000 0.01300
Fe2+M2 0.00000 0.34470 0.50000 0.22000 0.01300
TiM2 0.00000 0.34470 0.50000 0.06000 0.01300
AlM2 0.00000 0.34470 0.50000 0.02000 0.01300
AlT 0.07230 0.16740 0.22190 0.32000 0.01100
SiT 0.07230 0.16740 0.22190 0.68000 0.01100
O1 0.32280 0.23090 0.16430 1.00000 0.02200
O2 0.01530 0.00000 0.16730 1.00000 0.02300
O3 0.12930 0.17020 0.39100 1.00000 0.01500
O4 0.13810 0.50000 0.40260 1.00000 0.01600
