#------------------------------------------------------------------------------
#$Date: 2016-02-16 14:49:47 +0200 (Tue, 16 Feb 2016) $
#$Revision: 176465 $
#$URL: svn://www.crystallography.net/cod/cif/9/01/00/9010080.cif $
#------------------------------------------------------------------------------
#
# This file is available in the Crystallography Open Database (COD),
# http://www.crystallography.net/. The original data for this entry
# were provided the American Mineralogist Crystal Structure Database,
# http://rruff.geo.arizona.edu/AMS/amcsd.php
#
# The file may be used within the scientific community so long as
# proper attribution is given to the journal article from which the
# data were obtained.
#
data_9010080
loop_
_publ_author_name
'Redhammer, G. J.'
'Amthauer, G.'
'Roth, G.'
'Tippelt, G.'
'Lottermoser, W.'
_publ_section_title
;Single crystal X-ray diffraction and temperature dependent 57Fe Mossbauer
 spectroscopy on the hedenbergite - aegirine (Ca,Na)(Fe2+,Fe3+)Si2O6 solid
 solution Locality: synthetic Sample: Ae401, T = 298 K
;
_journal_name_full               'American Mineralogist'
_journal_page_first              1271
_journal_page_last               1292
_journal_paper_doi               10.2138/am.2006.2173
_journal_volume                  91
_journal_year                    2006
_chemical_formula_sum            'Ca0.615 Fe Na0.385 O6 Si2'
_chemical_name_mineral           Hedenbergite
_space_group_IT_number           15
_symmetry_space_group_name_Hall  '-C 2yc'
_symmetry_space_group_name_H-M   'C 1 2/c 1'
_cell_angle_alpha                90
_cell_angle_beta                 106.031
_cell_angle_gamma                90
_cell_length_a                   9.7560
_cell_length_b                   8.9252
_cell_length_c                   5.2739
_cell_volume                     441.363
_diffrn_ambient_temperature      298
_exptl_crystal_density_diffrn    3.635
_cod_original_formula_sum        '(Ca.615 Na.385) Fe Si2 O6'
_cod_database_code               9010080
loop_
_symmetry_equiv_pos_as_xyz
x,y,z
1/2+x,1/2+y,z
x,-y,1/2+z
1/2+x,1/2-y,1/2+z
-x,y,1/2-z
1/2-x,1/2+y,1/2-z
-x,-y,-z
1/2-x,1/2-y,-z
loop_
_atom_site_label
_atom_site_fract_x
_atom_site_fract_y
_atom_site_fract_z
_atom_site_occupancy
_atom_site_U_iso_or_equiv
Ca2 0.00000 0.30070 0.25000 0.61500 0.01030
Na2 0.00000 0.30070 0.25000 0.38500 0.01030
Fe2+1 0.00000 0.90370 0.25000 0.61500 0.00560
Fe3+1 0.00000 0.90370 0.25000 0.38500 0.00560
Si 0.28850 0.09140 0.23350 1.00000 0.00350
O1 0.11660 0.08450 0.14590 1.00000 0.00810
O2 0.36030 0.25070 0.31510 1.00000 0.00940
O3 0.35100 0.01530 0.00120 1.00000 0.00740
