#------------------------------------------------------------------------------
#$Date: 2016-02-16 14:49:47 +0200 (Tue, 16 Feb 2016) $
#$Revision: 176465 $
#$URL: svn://www.crystallography.net/cod/cif/9/01/01/9010173.cif $
#------------------------------------------------------------------------------
#
# This file is available in the Crystallography Open Database (COD),
# http://www.crystallography.net/. The original data for this entry
# were provided the American Mineralogist Crystal Structure Database,
# http://rruff.geo.arizona.edu/AMS/amcsd.php
#
# The file may be used within the scientific community so long as
# proper attribution is given to the journal article from which the
# data were obtained.
#
data_9010173
loop_
_publ_author_name
'Laurora, A.'
'Brigatti, M. F.'
'Mottana, A.'
'Malferrari, D.'
'Caprilli, E.'
_publ_section_title
;Crystal chemistry of trioctahedral micas in alkaline and subalkaline volcanic
 rocks: A case study from Mt. Sassetto (Tolfa district, Latium, central Italy)
 Locality: Mt. Sassetto, Tolfa district, Latium, Italy Sample: MS9 Note: 1M
 polytype
;
_journal_name_full               'American Mineralogist'
_journal_page_first              468
_journal_page_last               480
_journal_paper_doi               10.2138/am.2007.2339
_journal_volume                  92
_journal_year                    2007
_chemical_formula_sum
'Al0.94 Fe1.2 K0.9 Mg1.35 Na0.06 O12 Si2.84 Ti0.27'
_chemical_name_mineral           Phlogopite
_space_group_IT_number           12
_symmetry_space_group_name_Hall  '-C 2y'
_symmetry_space_group_name_H-M   'C 1 2/m 1'
_cell_angle_alpha                90
_cell_angle_beta                 100.051
_cell_angle_gamma                90
_cell_length_a                   5.3304
_cell_length_b                   9.2277
_cell_length_c                   10.1918
_cell_volume                     493.614
_exptl_crystal_density_diffrn    3.004
_cod_original_formula_sum
'K.9 Na.06 Mg1.35 Fe1.2 Ti.27 Al.94 Si2.84 O12'
_cod_database_code               9010173
loop_
_symmetry_equiv_pos_as_xyz
x,y,z
1/2+x,1/2+y,z
x,-y,z
1/2+x,1/2-y,z
-x,y,-z
1/2-x,1/2+y,-z
-x,-y,-z
1/2-x,1/2-y,-z
loop_
_atom_site_aniso_label
_atom_site_aniso_U_11
_atom_site_aniso_U_22
_atom_site_aniso_U_33
_atom_site_aniso_U_12
_atom_site_aniso_U_13
_atom_site_aniso_U_23
KA 0.03200 0.02800 0.03700 0.00000 0.00600 0.00000
NaA 0.03200 0.02800 0.03700 0.00000 0.00600 0.00000
MgM1 0.01400 0.00900 0.01800 0.00000 0.00400 0.00000
Fe2+M1 0.01400 0.00900 0.01800 0.00000 0.00400 0.00000
TiM1 0.01400 0.00900 0.01800 0.00000 0.00400 0.00000
AlM1 0.01400 0.00900 0.01800 0.00000 0.00400 0.00000
MgM2 0.01200 0.01400 0.01600 0.00000 0.00100 0.00000
Fe2+M2 0.01200 0.01400 0.01600 0.00000 0.00100 0.00000
TiM2 0.01200 0.01400 0.01600 0.00000 0.00100 0.00000
AlM2 0.01200 0.01400 0.01600 0.00000 0.00100 0.00000
AlT 0.01000 0.00800 0.01200 0.00000 0.00200 0.00000
SiT 0.01000 0.00800 0.01200 0.00000 0.00200 0.00000
O1 0.01900 0.02400 0.01800 -0.00600 0.00400 -0.00400
O2 0.03000 0.01200 0.01600 0.00000 0.00000 0.00000
O3 0.01500 0.01100 0.01200 0.00000 0.00200 0.00000
O4 0.01400 0.01400 0.01400 0.00000 0.00300 0.00000
loop_
_atom_site_label
_atom_site_fract_x
_atom_site_fract_y
_atom_site_fract_z
_atom_site_occupancy
_atom_site_U_iso_or_equiv
KA 0.00000 0.50000 0.00000 0.90000 0.03300
NaA 0.00000 0.50000 0.00000 0.06000 0.03300
MgM1 0.00000 0.00000 0.50000 0.45000 0.01300
Fe2+M1 0.00000 0.00000 0.50000 0.40000 0.01300
TiM1 0.00000 0.00000 0.50000 0.09000 0.01300
AlM1 0.00000 0.00000 0.50000 0.06000 0.01300
MgM2 0.00000 0.33910 0.50000 0.45000 0.01400
Fe2+M2 0.00000 0.33910 0.50000 0.40000 0.01400
TiM2 0.00000 0.33910 0.50000 0.09000 0.01400
AlM2 0.00000 0.33910 0.50000 0.06000 0.01400
AlT 0.07430 0.16720 0.22480 0.19000 0.01000
SiT 0.07430 0.16720 0.22480 0.71000 0.01000
O1 0.32660 0.22890 0.16750 1.00000 0.02000
O2 0.01340 0.00000 0.16940 1.00000 0.02000
O3 0.13020 0.16890 0.39120 1.00000 0.01300
O4 0.13340 0.50000 0.39930 1.00000 0.01400
