#------------------------------------------------------------------------------
#$Date: 2016-02-16 14:49:47 +0200 (Tue, 16 Feb 2016) $
#$Revision: 176465 $
#$URL: svn://www.crystallography.net/cod/cif/9/01/05/9010524.cif $
#------------------------------------------------------------------------------
#
# This file is available in the Crystallography Open Database (COD),
# http://www.crystallography.net/. The original data for this entry
# were provided the American Mineralogist Crystal Structure Database,
# http://rruff.geo.arizona.edu/AMS/amcsd.php
#
# The file may be used within the scientific community so long as
# proper attribution is given to the journal article from which the
# data were obtained.
#
data_9010524
loop_
_publ_author_name
'Demartin, F.'
'Pilati, T.'
'Diella, V.'
'Gentile, P.'
'Gramaccioli, C. M.'
_publ_section_title
;
 A crystal-chemical investigation of alpine gadolinite
 Locality: Moos, Rauris, Austria
 Sample: 2
 Note: structure from ICSD
;
_journal_name_full               'The Canadian Mineralogist'
_journal_page_first              127
_journal_page_last               136
_journal_volume                  31
_journal_year                    1993
_chemical_formula_sum
'B0.36 Be1.64 Ca0.14 Dy0.38 Fe0.66 O10 Si2 Y1.48'
_chemical_name_mineral           Gadolinite-(Y)
_space_group_IT_number           14
_symmetry_space_group_name_Hall  '-P 2ybc'
_symmetry_space_group_name_H-M   'P 1 21/c 1'
_cell_angle_alpha                90
_cell_angle_beta                 90.51
_cell_angle_gamma                90
_cell_length_a                   4.747
_cell_length_b                   7.544
_cell_length_c                   9.931
_cell_volume                     355.629
_exptl_crystal_density_diffrn    4.395
_cod_original_formula_sum
'(Y1.48 Dy.38 Ca.14) (Be1.64 B.36) Fe.66 Si2 O10'
_cod_database_code               9010524
loop_
_symmetry_equiv_pos_as_xyz
x,y,z
x,1/2-y,1/2+z
-x,1/2+y,1/2-z
-x,-y,-z
loop_
_atom_site_aniso_label
_atom_site_aniso_U_11
_atom_site_aniso_U_22
_atom_site_aniso_U_33
_atom_site_aniso_U_12
_atom_site_aniso_U_13
_atom_site_aniso_U_23
Y 0.00612 0.00600 0.00550 -0.00075 -0.00013 -0.00029
Dy 0.00612 0.00600 0.00550 -0.00075 -0.00013 -0.00029
Ca 0.00612 0.00600 0.00550 -0.00075 -0.00013 -0.00029
Be 0.00600 0.00500 0.00600 0.00100 0.00120 0.00000
B 0.00600 0.00500 0.00600 0.00100 0.00120 0.00000
Fe 0.00650 0.00830 0.00590 0.00140 0.00050 -0.00040
Si 0.00550 0.00460 0.00520 -0.00030 0.00050 -0.00050
O1 0.00710 0.00910 0.00900 0.00080 0.00050 -0.00290
O2 0.00850 0.00830 0.00680 0.00270 -0.00130 0.00020
O3 0.00800 0.01040 0.00620 -0.00220 0.00060 0.00140
O4 0.00940 0.00600 0.00900 0.00040 -0.00090 0.00120
O5 0.00690 0.01130 0.00870 -0.00100 0.00010 0.00010
loop_
_atom_site_label
_atom_site_fract_x
_atom_site_fract_y
_atom_site_fract_z
_atom_site_occupancy
Y 0.99946 0.10780 0.33018 0.74000
Dy 0.99946 0.10780 0.33018 0.19000
Ca 0.99946 0.10780 0.33018 0.07000
Be 0.45670 0.41510 0.33590 0.82000
B 0.45670 0.41510 0.33590 0.18000
Fe 0.00000 0.00000 0.00000 0.66000
Si 0.51960 0.27810 0.07868 1.00000
O1 0.76030 0.41270 0.03070 1.00000
O2 0.32450 0.28700 0.45130 1.00000
O3 0.30640 0.34680 0.19580 1.00000
O4 0.68650 0.10720 0.14370 1.00000
O5 0.79440 0.41160 0.33240 1.00000
