#------------------------------------------------------------------------------
#$Date: 2016-02-16 14:49:47 +0200 (Tue, 16 Feb 2016) $
#$Revision: 176465 $
#$URL: svn://www.crystallography.net/cod/cif/9/01/05/9010525.cif $
#------------------------------------------------------------------------------
#
# This file is available in the Crystallography Open Database (COD),
# http://www.crystallography.net/. The original data for this entry
# were provided the American Mineralogist Crystal Structure Database,
# http://rruff.geo.arizona.edu/AMS/amcsd.php
#
# The file may be used within the scientific community so long as
# proper attribution is given to the journal article from which the
# data were obtained.
#
data_9010525
loop_
_publ_author_name
'Demartin, F.'
'Pilati, T.'
'Diella, V.'
'Gentile, P.'
'Gramaccioli, C. M.'
_publ_section_title
;
 A crystal-chemical investigation of alpine gadolinite
 Locality: Beura, Ossola, Italy
 Sample: 3
 Note: structure from ICSD
;
_journal_name_full               'The Canadian Mineralogist'
_journal_page_first              127
_journal_page_last               136
_journal_volume                  31
_journal_year                    1993
_chemical_formula_sum
'B0.64 Be1.36 Ca0.22 Dy0.4 Fe0.5 O10 Si2 Y1.38'
_chemical_name_mineral           Gadolinite-(Y)
_space_group_IT_number           14
_symmetry_space_group_name_Hall  '-P 2ybc'
_symmetry_space_group_name_H-M   'P 1 21/c 1'
_cell_angle_alpha                90
_cell_angle_beta                 90.41
_cell_angle_gamma                90
_cell_length_a                   4.743
_cell_length_b                   7.568
_cell_length_c                   9.900
_cell_volume                     355.352
_exptl_crystal_density_diffrn    4.297
_cod_original_formula_sum
'(Y1.38 Dy.4 Ca.22) (Be1.36 B.64) Fe.5 Si2 O10'
_cod_database_code               9010525
loop_
_symmetry_equiv_pos_as_xyz
x,y,z
x,1/2-y,1/2+z
-x,1/2+y,1/2-z
-x,-y,-z
loop_
_atom_site_aniso_label
_atom_site_aniso_U_11
_atom_site_aniso_U_22
_atom_site_aniso_U_33
_atom_site_aniso_U_12
_atom_site_aniso_U_13
_atom_site_aniso_U_23
Y 0.00710 0.00715 0.00644 -0.00076 -0.00007 -0.00036
Dy 0.00710 0.00715 0.00644 -0.00076 -0.00007 -0.00036
Ca 0.00710 0.00715 0.00644 -0.00076 -0.00007 -0.00036
Be 0.00600 0.00700 0.00500 0.00100 0.00100 -0.00100
B 0.00600 0.00700 0.00500 0.00100 0.00100 -0.00100
Fe 0.00670 0.00900 0.00800 0.00140 0.00050 0.00010
Si 0.00630 0.00550 0.00590 -0.00020 0.00040 0.00010
O1 0.00810 0.01010 0.01100 0.00030 0.00040 -0.00230
O2 0.01130 0.01030 0.00870 0.00210 -0.00220 -0.00040
O3 0.00950 0.01260 0.00760 -0.00060 0.00180 0.00270
O4 0.01130 0.00810 0.01110 0.00060 -0.00160 0.00320
O5 0.00800 0.01290 0.01010 -0.00140 0.00020 -0.00020
loop_
_atom_site_label
_atom_site_fract_x
_atom_site_fract_y
_atom_site_fract_z
_atom_site_occupancy
Y 0.00019 0.10751 0.33146 0.69000
Dy 0.00019 0.10751 0.33146 0.20000
Ca 0.00019 0.10751 0.33146 0.11000
Be 0.45090 0.41440 0.33640 0.68000
B 0.45090 0.41440 0.33640 0.32000
Fe 0.00000 0.00000 0.00000 0.50000
Si 0.52000 0.27620 0.07938 1.00000
O1 0.76040 0.41190 0.03190 1.00000
O2 0.32500 0.28860 0.45190 1.00000
O3 0.30700 0.34580 0.19720 1.00000
O4 0.68640 0.10540 0.14480 1.00000
O5 0.78760 0.41180 0.33260 1.00000
