#------------------------------------------------------------------------------
#$Date: 2016-02-16 14:49:47 +0200 (Tue, 16 Feb 2016) $
#$Revision: 176465 $
#$URL: svn://www.crystallography.net/cod/cif/9/01/07/9010726.cif $
#------------------------------------------------------------------------------
#
# This file is available in the Crystallography Open Database (COD),
# http://www.crystallography.net/. The original data for this entry
# were provided the American Mineralogist Crystal Structure Database,
# http://rruff.geo.arizona.edu/AMS/amcsd.php
#
# The file may be used within the scientific community so long as
# proper attribution is given to the journal article from which the
# data were obtained.
#
data_9010726
loop_
_publ_author_name
'Brigatti, M. F.'
'Caprilli, E.'
'Funiciello, R.'
'Giordano, G.'
'Mottana, A.'
'Poppi, L.'
_publ_section_title
;
 Crystal chemisty of ferroan phlogopites from the Albano maar lake
 (Colli Albani volcano, central Italy)
 Locality: Colli Albani volcano, central Italy
 Sample: CA1
;
_journal_name_full               'European Journal of Mineralogy'
_journal_page_first              611
_journal_page_last               621
_journal_volume                  17
_journal_year                    2005
_chemical_formula_sum
'Al1.596 Ba0.081 Fe0.3 K0.931 Mg2.43 Mn0.009 O12 Si2.62 Ti0.045'
_chemical_name_mineral           Phlogopite
_space_group_IT_number           12
_symmetry_space_group_name_Hall  '-C 2y'
_symmetry_space_group_name_H-M   'C 1 2/m 1'
_cell_angle_alpha                90
_cell_angle_beta                 100.02
_cell_angle_gamma                90
_cell_length_a                   5.3231
_cell_length_b                   9.224
_cell_length_c                   10.241
_cell_volume                     495.166
_exptl_crystal_density_diffrn    2.915
_cod_original_formula_sum
'Ba.081 K.931 Al1.596 Ti.045 Fe.3 Mg2.43 Mn.009 Si2.62 O12'
_cod_database_code               9010726
loop_
_symmetry_equiv_pos_as_xyz
x,y,z
1/2+x,1/2+y,z
x,-y,z
1/2+x,1/2-y,z
-x,y,-z
1/2-x,1/2+y,-z
-x,-y,-z
1/2-x,1/2-y,-z
loop_
_atom_site_aniso_label
_atom_site_aniso_U_11
_atom_site_aniso_U_22
_atom_site_aniso_U_33
_atom_site_aniso_U_12
_atom_site_aniso_U_13
_atom_site_aniso_U_23
BaA 0.02617 0.02715 0.02267 0.00000 0.00375 0.00000
KA 0.02617 0.02715 0.02267 0.00000 0.00375 0.00000
AlM1 0.00626 0.00603 0.01134 0.00000 0.00241 0.00000
TiM1 0.00626 0.00603 0.01134 0.00000 0.00241 0.00000
Fe2+M1 0.00626 0.00603 0.01134 0.00000 0.00241 0.00000
MgM1 0.00626 0.00603 0.01134 0.00000 0.00241 0.00000
MnM1 0.00626 0.00603 0.01134 0.00000 0.00241 0.00000
AlM2 0.00585 0.00690 0.00979 0.00000 0.00134 0.00000
TiM2 0.00585 0.00690 0.00979 0.00000 0.00134 0.00000
Fe2+M2 0.00585 0.00690 0.00979 0.00000 0.00134 0.00000
MgM2 0.00585 0.00690 0.00979 0.00000 0.00134 0.00000
MnM2 0.00585 0.00690 0.00979 0.00000 0.00134 0.00000
SiT 0.00612 0.00647 0.00773 0.00000 0.00107 0.00000
AlT 0.00612 0.00647 0.00773 0.00000 0.00107 0.00000
O1 0.02046 0.01250 0.01340 0.00000 -0.00080 0.00000
O2 0.01448 0.02069 0.01340 -0.00563 0.00402 -0.00283
O3 0.00947 0.00862 0.00824 -0.00024 0.00161 -0.00047
O4 0.00821 0.00862 0.00670 0.00000 0.00107 0.00000
loop_
_atom_site_label
_atom_site_fract_x
_atom_site_fract_y
_atom_site_fract_z
_atom_site_occupancy
_atom_site_U_iso_or_equiv
BaA 0.00000 0.50000 0.00000 0.08100 0.02546
KA 0.00000 0.50000 0.00000 0.93100 0.02546
AlM1 0.00000 0.00000 0.50000 0.07200 0.00760
TiM1 0.00000 0.00000 0.50000 0.01500 0.00760
Fe2+M1 0.00000 0.00000 0.50000 0.10000 0.00760
MgM1 0.00000 0.00000 0.50000 0.81000 0.00760
MnM1 0.00000 0.00000 0.50000 0.00300 0.00760
AlM2 0.00000 0.33150 0.50000 0.07200 0.00747
TiM2 0.00000 0.33150 0.50000 0.01500 0.00747
Fe2+M2 0.00000 0.33150 0.50000 0.10000 0.00747
MgM2 0.00000 0.33150 0.50000 0.81000 0.00747
MnM2 0.00000 0.33150 0.50000 0.00300 0.00747
SiT 0.07550 0.16670 0.22660 0.65500 0.00671
AlT 0.07550 0.16670 0.22660 0.34500 0.00671
O1 0.00440 0.00000 0.16960 1.00000 0.01596
O2 0.33330 0.22370 0.16950 1.00000 0.01596
O3 0.13090 0.16660 0.39220 1.00000 0.00887
O4 0.13200 0.50000 0.40010 1.00000 0.00785
