#------------------------------------------------------------------------------
#$Date: 2016-02-16 14:49:47 +0200 (Tue, 16 Feb 2016) $
#$Revision: 176465 $
#$URL: svn://www.crystallography.net/cod/cif/9/01/01/9010175.cif $
#------------------------------------------------------------------------------
#
# This file is available in the Crystallography Open Database (COD),
# http://www.crystallography.net/. The original data for this entry
# were provided the American Mineralogist Crystal Structure Database,
# http://rruff.geo.arizona.edu/AMS/amcsd.php
#
# The file may be used within the scientific community so long as
# proper attribution is given to the journal article from which the
# data were obtained.
#
data_9010175
loop_
_publ_author_name
'Laurora, A.'
'Brigatti, M. F.'
'Mottana, A.'
'Malferrari, D.'
'Caprilli, E.'
_publ_section_title
;Crystal chemistry of trioctahedral micas in alkaline and subalkaline volcanic
 rocks: A case study from Mt. Sassetto (Tolfa district, Latium, central Italy)
 Locality: Mt. Sassetto, Tolfa district, Latium, Italy Sample: MS3(1) Note: 1M
 polytype
;
_journal_name_full               'American Mineralogist'
_journal_page_first              468
_journal_page_last               480
_journal_paper_doi               10.2138/am.2007.2339
_journal_volume                  92
_journal_year                    2007
_chemical_formula_sum
'Al1.32 Fe1.14 K0.94 Mg1.44 Na0.06 O12 Si2.8 Ti0.3'
_chemical_name_mineral           Phlogopite
_space_group_IT_number           12
_symmetry_space_group_name_Hall  '-C 2y'
_symmetry_space_group_name_H-M   'C 1 2/m 1'
_cell_angle_alpha                90
_cell_angle_beta                 100.138
_cell_angle_gamma                90
_cell_length_a                   5.3402
_cell_length_b                   9.2461
_cell_length_c                   10.1866
_cell_volume                     495.121
_exptl_crystal_density_diffrn    3.068
_cod_original_formula_sum
'(K.94 Na.06) Mg1.44 Fe1.14 Ti.3 Al1.32 Si2.8 O12'
_cod_database_code               9010175
loop_
_symmetry_equiv_pos_as_xyz
x,y,z
1/2+x,1/2+y,z
x,-y,z
1/2+x,1/2-y,z
-x,y,-z
1/2-x,1/2+y,-z
-x,-y,-z
1/2-x,1/2-y,-z
loop_
_atom_site_aniso_label
_atom_site_aniso_U_11
_atom_site_aniso_U_22
_atom_site_aniso_U_33
_atom_site_aniso_U_12
_atom_site_aniso_U_13
_atom_site_aniso_U_23
KA 0.03400 0.03300 0.03900 0.00000 0.00600 0.00000
NaA 0.03400 0.03300 0.03900 0.00000 0.00600 0.00000
MgM1 0.01200 0.01100 0.01900 0.00000 0.00500 0.00000
Fe2+M1 0.01200 0.01100 0.01900 0.00000 0.00500 0.00000
TiM1 0.01200 0.01100 0.01900 0.00000 0.00500 0.00000
AlM1 0.01200 0.01100 0.01900 0.00000 0.00500 0.00000
MgM2 0.01100 0.01700 0.01700 0.00000 0.00200 0.00000
Fe2+M2 0.01100 0.01700 0.01700 0.00000 0.00200 0.00000
TiM2 0.01100 0.01700 0.01700 0.00000 0.00200 0.00000
AlM2 0.01100 0.01700 0.01700 0.00000 0.00200 0.00000
AlT 0.00900 0.00900 0.01200 0.00000 0.00200 0.00000
SiT 0.00900 0.00900 0.01200 0.00000 0.00200 0.00000
O1 0.01800 0.02500 0.01800 -0.00700 0.00400 -0.00300
O2 0.03000 0.01300 0.01600 0.00000 0.00100 0.00000
O3 0.01300 0.01200 0.01200 0.00000 0.00300 -0.00100
O4 0.01100 0.01400 0.01400 0.00000 0.00200 0.00000
loop_
_atom_site_label
_atom_site_fract_x
_atom_site_fract_y
_atom_site_fract_z
_atom_site_occupancy
_atom_site_U_iso_or_equiv
KA 0.00000 0.50000 0.00000 0.94000 0.03500
NaA 0.00000 0.50000 0.00000 0.06000 0.03500
MgM1 0.00000 0.00000 0.50000 0.48000 0.01400
Fe2+M1 0.00000 0.00000 0.50000 0.38000 0.01400
TiM1 0.00000 0.00000 0.50000 0.10000 0.01400
AlM1 0.00000 0.00000 0.50000 0.04000 0.01400
MgM2 0.00000 0.33780 0.50000 0.48000 0.01500
Fe2+M2 0.00000 0.33780 0.50000 0.38000 0.01500
TiM2 0.00000 0.33780 0.50000 0.10000 0.01500
AlM2 0.00000 0.33780 0.50000 0.04000 0.01500
AlT 0.07460 0.16710 0.22450 0.30000 0.01000
SiT 0.07460 0.16710 0.22450 0.70000 0.01000
O1 0.32260 0.23220 0.16700 1.00000 0.02000
O2 0.01970 0.00000 0.16840 1.00000 0.02000
O3 0.13080 0.16850 0.39060 1.00000 0.01200
O4 0.13160 0.50000 0.39870 1.00000 0.01300
