#------------------------------------------------------------------------------
#$Date: 2016-02-16 14:49:47 +0200 (Tue, 16 Feb 2016) $
#$Revision: 176465 $
#$URL: svn://www.crystallography.net/cod/cif/9/01/08/9010889.cif $
#------------------------------------------------------------------------------
#
# This file is available in the Crystallography Open Database (COD),
# http://www.crystallography.net/. The original data for this entry
# were provided the American Mineralogist Crystal Structure Database,
# http://rruff.geo.arizona.edu/AMS/amcsd.php
#
# The file may be used within the scientific community so long as
# proper attribution is given to the journal article from which the
# data were obtained.
#
data_9010889
loop_
_publ_author_name
'Gatta, G. D.'
'Rinaldi, R.'
'Knight, K. S.'
'Molin, G.'
'Artioli, G.'
_publ_section_title
;
 High temperature structural and thermoelastic behaviour of mantle
 orthopyroxene: an in situ neutron powder diffraction study
 Sample: T = 1,175 C
;
_journal_name_full               'Physics and Chemistry of Minerals'
_journal_page_first              185
_journal_page_last               200
_journal_paper_doi               10.1007/s00269-006-0138-2
_journal_volume                  34
_journal_year                    2007
_chemical_formula_sum            'Al0.03 Fe0.15 Mg1.82 O6 Si1.97'
_chemical_name_mineral           Enstatite
_space_group_IT_number           61
_symmetry_space_group_name_Hall  '-P 2ac 2ab'
_symmetry_space_group_name_H-M   'P b c a'
_cell_angle_alpha                90
_cell_angle_beta                 90
_cell_angle_gamma                90
_cell_length_a                   18.4517
_cell_length_b                   8.9612
_cell_length_c                   5.2797
_cell_volume                     872.995
_exptl_crystal_density_diffrn    3.116
_cod_original_formula_sum        'Mg1.82 Fe.15 Si1.97 Al.03 O6'
_cod_database_code               9010889
loop_
_symmetry_equiv_pos_as_xyz
x,y,z
x,1/2-y,1/2+z
-x,1/2+y,1/2-z
1/2-x,1/2+y,z
1/2+x,1/2-y,-z
1/2+x,y,1/2-z
1/2-x,-y,1/2+z
-x,-y,-z
loop_
_atom_site_label
_atom_site_fract_x
_atom_site_fract_y
_atom_site_fract_z
_atom_site_occupancy
_atom_site_U_iso_or_equiv
MgM1 0.38140 0.65140 0.89370 0.92800 0.04322
FeM1 0.38140 0.65140 0.89370 0.06200 0.04322
MgM2 0.37290 0.48500 0.36920 0.89200 0.04855
FeM2 0.37290 0.48500 0.36920 0.08800 0.04855
SiA 0.27120 0.34640 0.06470 1.00000 0.01682
SiB 0.47560 0.34170 0.77330 0.97000 0.01682
AlB 0.47560 0.34170 0.77330 0.03000 0.01682
O1A 0.18560 0.33900 0.05620 1.00000 0.01900
O1B 0.56290 0.34350 0.78430 1.00000 0.01900
O2A 0.31190 0.50310 0.04770 1.00000 0.01900
O2B 0.43210 0.49560 0.70530 1.00000 0.01900
O3A 0.30280 0.23630 -0.17020 1.00000 0.01900
O3B 0.45030 0.20820 0.57580 1.00000 0.01900
