#------------------------------------------------------------------------------
#$Date: 2014-07-12 11:06:43 +0300 (Sat, 12 Jul 2014) $
#$Revision: 120115 $
#$URL: svn://www.crystallography.net/cod/cif/9/01/03/9010357.cif $
#------------------------------------------------------------------------------
#
# This file is available in the Crystallography Open Database (COD),
# http://www.crystallography.net/. The original data for this entry
# were provided the American Mineralogist Crystal Structure Database,
# http://rruff.geo.arizona.edu/AMS/amcsd.php
#
# The file may be used within the scientific community so long as
# proper attribution is given to the journal article from which the
# data were obtained.
#
data_9010357
loop_
_publ_author_name
'Martin, C. D.'
'Smith, R. I.'
'Marshall, W. G.'
'Parise, J. B.'
_publ_section_title
;
 High-pressure structure and bonding in CaIrO3: the structure model of MgSiO3
 post-perovskite investigated with time-of-flight neutron powder diffraction
 Note: Ca(z) and O(y) changed to match normal structure
 Sample: T = 293 K, P = 1 bar
;
_journal_name_full               'American Mineralogist'
_journal_page_first              1912
_journal_page_last               1918
_journal_volume                  92
_journal_year                    2007
_chemical_formula_structural     CaIrO3
_chemical_formula_sum            'Ca Ir O3'
_space_group_IT_number           63
_symmetry_space_group_name_Hall  '-C 2c 2'
_symmetry_space_group_name_H-M   'C m c m'
_cell_angle_alpha                90
_cell_angle_beta                 90
_cell_angle_gamma                90
_cell_length_a                   3.13645
_cell_length_b                   9.88352
_cell_length_c                   7.29903
_cell_volume                     226.264
_diffrn_ambient_pressure         100
_diffrn_ambient_temperature      293
_exptl_crystal_density_diffrn    8.228
_cod_database_code               9010357
loop_
_symmetry_equiv_pos_as_xyz
x,y,z
1/2+x,1/2+y,z
x,-y,1/2+z
1/2+x,1/2-y,1/2+z
-x,y,1/2-z
1/2-x,1/2+y,1/2-z
-x,y,z
1/2-x,1/2+y,z
x,-y,-z
1/2+x,1/2-y,-z
x,y,1/2-z
1/2+x,1/2+y,1/2-z
-x,-y,1/2+z
1/2-x,1/2-y,1/2+z
-x,-y,-z
1/2-x,1/2-y,-z
loop_
_atom_site_label
_atom_site_fract_x
_atom_site_fract_y
_atom_site_fract_z
_atom_site_U_iso_or_equiv
Ca 0.00000 0.25035 0.25000 0.00576
Ir 0.00000 0.00000 0.00000 0.00251
O1 0.00000 0.92505 0.25000 0.00428
O2 0.00000 0.62719 0.05036 0.00383
_journal_paper_doi 10.2138/am.2007.2585
