#------------------------------------------------------------------------------
#$Date: 2013-05-05 17:21:46 +0300 (Sun, 05 May 2013) $
#$Revision: 85285 $
#$URL: svn://www.crystallography.net/cod/cif/9/01/18/9011834.cif $
#------------------------------------------------------------------------------
#
# This file is available in the Crystallography Open Database (COD),
# http://www.crystallography.net/. The original data for this entry
# were provided the American Mineralogist Crystal Structure Database,
# http://rruff.geo.arizona.edu/AMS/amcsd.php
#
# The file may be used within the scientific community so long as
# proper attribution is given to the journal article from which the
# data were obtained.
#
data_9011834
loop_
_publ_author_name
'Kondrashev, I. D.'
_publ_section_title
;
 The crystal structure and composition of crednerite, CuMnO2
 Locality: synthetic
 Note: calculated bond lengths unreconcileable with reported
;
_journal_name_full               'Soviet Physics Crystallography'
_journal_page_first              703
_journal_page_last               706
_journal_volume                  3
_journal_year                    1959
_chemical_formula_sum            'Cu Mn O2'
_chemical_name_mineral           Crednerite
_space_group_IT_number           12
_symmetry_space_group_name_Hall  '-C 2y'
_symmetry_space_group_name_H-M   'C 1 2/m 1'
_cell_angle_alpha                90
_cell_angle_beta                 104.6
_cell_angle_gamma                90
_cell_length_a                   5.530
_cell_length_b                   2.884
_cell_length_c                   5.898
_cell_volume                     91.027
_exptl_crystal_density_diffrn    5.490
_cod_database_code               9011834
loop_
_symmetry_equiv_pos_as_xyz
x,y,z
1/2+x,1/2+y,z
x,-y,z
1/2+x,1/2-y,z
-x,y,-z
1/2-x,1/2+y,-z
-x,-y,-z
1/2-x,1/2-y,-z
loop_
_atom_site_label
_atom_site_fract_x
_atom_site_fract_y
_atom_site_fract_z
Cu 0.00000 0.50000 0.50000
Mn 0.00000 0.00000 0.00000
O 0.41600 0.00000 0.14300
