#------------------------------------------------------------------------------
#$Date: 2016-02-16 14:49:47 +0200 (Tue, 16 Feb 2016) $
#$Revision: 176465 $
#$URL: svn://www.crystallography.net/cod/cif/9/01/14/9011488.cif $
#------------------------------------------------------------------------------
#
# This file is available in the Crystallography Open Database (COD),
# http://www.crystallography.net/. The original data for this entry
# were provided the American Mineralogist Crystal Structure Database,
# http://rruff.geo.arizona.edu/AMS/amcsd.php
#
# The file may be used within the scientific community so long as
# proper attribution is given to the journal article from which the
# data were obtained.
#
data_9011488
loop_
_publ_author_name
'Jarosch, D.'
_publ_section_title
;
 Crystal structure of iwakiite
 Locality: Gozaisho mine, Fukushima Prefecture, Japan
 Note: coordinates from ICSD, reproduce reported bond lengths
;
_journal_name_full               'Zeitschrift fur Kristallographie'
_journal_page_first              605
_journal_page_last               605
_journal_volume                  185
_journal_year                    1988
_chemical_formula_sum            'Fe1.2 Mn1.6 O4'
_chemical_name_mineral           Iwakiite
_space_group_IT_number           141
_symmetry_space_group_name_Hall  '-I 4bd 2'
_symmetry_space_group_name_H-M   'I 41/a m d :2'
_cell_angle_alpha                90
_cell_angle_beta                 90
_cell_angle_gamma                90
_cell_length_a                   6.025
_cell_length_b                   6.025
_cell_length_c                   8.539
_cell_volume                     309.971
_exptl_crystal_density_diffrn    4.691
_cod_original_sg_symbol_H-M      'I 41/a m d'
_cod_original_formula_sum        'Mn1.6 Fe1.2 O4'
_cod_database_code               9011488
loop_
_symmetry_equiv_pos_as_xyz
x,y,z
1/2+x,1/2+y,1/2+z
1/4-y,3/4-x,1/4+z
3/4-y,1/4-x,3/4+z
1/4+y,3/4+x,1/4-z
3/4+y,1/4+x,3/4-z
1/4+y,3/4-x,1/4-z
3/4+y,1/4-x,3/4-z
1/4-y,3/4+x,1/4+z
3/4-y,1/4+x,3/4+z
1/2+x,-y,1/2+z
+x,1/2-y,+z
1/2-x,y,1/2-z
-x,1/2+y,-z
1/2+x,y,1/2-z
+x,1/2+y,-z
1/2-x,-y,1/2+z
-x,1/2-y,+z
1/4+y,1/4+x,3/4+z
3/4+y,3/4+x,1/4+z
1/4-y,1/4-x,3/4-z
3/4-y,3/4-x,1/4-z
1/4-y,1/4+x,3/4-z
3/4-y,3/4+x,1/4-z
1/4+y,1/4-x,3/4+z
3/4+y,3/4-x,1/4+z
-x,y,z
1/2-x,1/2+y,1/2+z
x,-y,-z
1/2+x,1/2-y,1/2-z
-x,-y,-z
1/2-x,1/2-y,1/2-z
loop_
_atom_site_label
_atom_site_fract_x
_atom_site_fract_y
_atom_site_fract_z
_atom_site_occupancy
Mn1 0.00000 0.25000 0.87500 1.00000
Mn2 0.00000 0.50000 0.50000 0.30000
Fe2 0.00000 0.50000 0.50000 0.60000
O 0.00000 0.47560 0.26220 1.00000
