#------------------------------------------------------------------------------
#$Date: 2017-10-14 23:18:49 +0300 (Sat, 14 Oct 2017) $
#$Revision: 202019 $
#$URL: file:///home/coder/svn-repositories/cod/cif/9/01/21/9012124.cif $
#------------------------------------------------------------------------------
#
# This file is available in the Crystallography Open Database (COD),
# http://www.crystallography.net/. The original data for this entry
# were provided the American Mineralogist Crystal Structure Database,
# http://rruff.geo.arizona.edu/AMS/amcsd.php
#
# The file may be used within the scientific community so long as
# proper attribution is given to the journal article from which the
# data were obtained.
#
data_9012124
loop_
_publ_author_name
'Gavarri, J. R.'
'Weigel, D.'
_publ_section_title
;
 Oxydes de plomb. I. structure cristalline du minium Pb3O4, a temperature
 ambiante (293 K)
 Locality: synthetic
 Sample: T = 293 K
;
_journal_name_full               'Journal of Solid State Chemistry'
_journal_page_first              252
_journal_page_last               257
_journal_paper_doi               10.1016/0022-4596(75)90127-9
_journal_volume                  13
_journal_year                    1975
_chemical_formula_sum            'O4 Pb3'
_chemical_name_mineral           Minium
_space_group_IT_number           135
_symmetry_space_group_name_Hall  '-P 4c 2ab'
_symmetry_space_group_name_H-M   'P 42/m b c'
_cell_angle_alpha                90
_cell_angle_beta                 90
_cell_angle_gamma                90
_cell_length_a                   8.811
_cell_length_b                   8.811
_cell_length_c                   6.563
_cell_volume                     509.510
_diffrn_ambient_temperature      293
_exptl_crystal_density_diffrn    8.938
_cod_original_formula_sum        'Pb3 O4'
_cod_database_code               9012124
loop_
_symmetry_equiv_pos_as_xyz
x,y,z
1/2-y,1/2-x,1/2+z
1/2+y,1/2+x,1/2-z
y,-x,1/2-z
-y,x,1/2+z
1/2+x,1/2-y,z
1/2-x,1/2+y,-z
x,y,-z
-x,-y,z
1/2+y,1/2+x,1/2+z
1/2-y,1/2-x,1/2-z
-y,x,1/2-z
y,-x,1/2+z
1/2-x,1/2+y,z
1/2+x,1/2-y,-z
-x,-y,-z
loop_
_atom_site_label
_atom_site_fract_x
_atom_site_fract_y
_atom_site_fract_z
Pb4+ 0.00000 0.50000 0.25000
Pb2+ 0.14000 0.16300 0.00000
O1 0.67100 0.17100 0.25000
O2 0.09600 0.63700 0.00000
loop_
_cod_related_entry_id
_cod_related_entry_database
_cod_related_entry_code
1 ChemSpider 26666405
