#------------------------------------------------------------------------------
#$Date: 2016-02-16 14:49:47 +0200 (Tue, 16 Feb 2016) $
#$Revision: 176465 $
#$URL: svn://www.crystallography.net/cod/cif/9/01/27/9012794.cif $
#------------------------------------------------------------------------------
#
# This file is available in the Crystallography Open Database (COD),
# http://www.crystallography.net/. The original data for this entry
# were provided the American Mineralogist Crystal Structure Database,
# http://rruff.geo.arizona.edu/AMS/amcsd.php
#
# The file may be used within the scientific community so long as
# proper attribution is given to the journal article from which the
# data were obtained.
#
data_9012794
loop_
_publ_author_name
'Tsurumi, T.'
'Hirano, Y.'
'Kato, H.'
'Kamiya, T.'
'Daimon, M.'
_publ_section_title
;
 Crystal structure and hydration of belite
 Locality: synthetic
;
_journal_name_full               'Ceramic Transactions'
_journal_page_first              19
_journal_page_last               25
_journal_volume                  40
_journal_year                    1994
_chemical_formula_sum            'Ca2 O4 Si'
_chemical_name_mineral           Larnite
_space_group_IT_number           14
_symmetry_space_group_name_Hall  '-P 2yn'
_symmetry_space_group_name_H-M   'P 1 21/n 1'
_cell_angle_alpha                90
_cell_angle_beta                 94.590
_cell_angle_gamma                90
_cell_length_a                   5.5075
_cell_length_b                   6.7508
_cell_length_c                   9.3054
_cell_volume                     344.865
_exptl_crystal_density_diffrn    3.317
_cod_original_formula_sum        'Ca2 Si O4'
_cod_database_code               9012794
loop_
_symmetry_equiv_pos_as_xyz
x,y,z
1/2+x,1/2-y,1/2+z
1/2-x,1/2+y,1/2-z
-x,-y,-z
loop_
_atom_site_label
_atom_site_fract_x
_atom_site_fract_y
_atom_site_fract_z
Ca1 0.22600 0.34100 0.42800
Ca2 0.22300 -0.00300 -0.29600
Si 0.26600 -0.21900 0.41700
O1 0.22300 0.00500 0.44200
O2 0.01500 -0.31900 0.36600
O3 0.47000 -0.24600 0.31100
O4 0.34900 -0.31200 -0.42600
