#------------------------------------------------------------------------------
#$Date: 2016-02-16 14:49:47 +0200 (Tue, 16 Feb 2016) $
#$Revision: 176465 $
#$URL: svn://www.crystallography.net/cod/cif/9/01/21/9012133.cif $
#------------------------------------------------------------------------------
#
# This file is available in the Crystallography Open Database (COD),
# http://www.crystallography.net/. The original data for this entry
# were provided the American Mineralogist Crystal Structure Database,
# http://rruff.geo.arizona.edu/AMS/amcsd.php
#
# The file may be used within the scientific community so long as
# proper attribution is given to the journal article from which the
# data were obtained.
#
data_9012133
loop_
_publ_author_name
'Christensen, A. N.'
'Hansen, P.'
'Lehmann, M. S.'
_publ_section_title
;
 Isotope effects in the bonds of alpha-CrOOH and alpha-CrOOD
 Locality: synthetic
;
_journal_name_full               'Journal of Solid State Chemistry'
_journal_page_first              325
_journal_page_last               329
_journal_paper_doi               10.1016/0022-4596(77)90130-X
_journal_volume                  21
_journal_year                    1977
_chemical_formula_structural     CrO(OD)
_chemical_formula_sum            'Cr D O2'
_chemical_name_mineral           'Grimaldiite (deuterated)'
_space_group_IT_number           160
_symmetry_space_group_name_Hall  'R 3 -2"'
_symmetry_space_group_name_H-M   'R 3 m :H'
_cell_angle_alpha                90
_cell_angle_beta                 90
_cell_angle_gamma                120
_cell_length_a                   2.985
_cell_length_b                   2.985
_cell_length_c                   13.48
_cell_volume                     104.018
_exptl_crystal_density_diffrn    4.119
_cod_original_sg_symbol_H-M      'R 3 m'
_cod_original_formula_sum        'Cr O2 D'
_cod_database_code               9012133
loop_
_symmetry_equiv_pos_as_xyz
x,y,z
2/3+x,1/3+y,1/3+z
1/3+x,2/3+y,2/3+z
x,x-y,z
2/3+x,1/3+x-y,1/3+z
1/3+x,2/3+x-y,2/3+z
-y,-x,z
2/3-y,1/3-x,1/3+z
1/3-y,2/3-x,2/3+z
-x+y,y,z
2/3-x+y,1/3+y,1/3+z
1/3-x+y,2/3+y,2/3+z
-y,x-y,z
2/3-y,1/3+x-y,1/3+z
1/3-y,2/3+x-y,2/3+z
-x+y,-x,z
2/3-x+y,1/3-x,1/3+z
1/3-x+y,2/3-x,2/3+z
loop_
_atom_site_label
_atom_site_fract_x
_atom_site_fract_y
_atom_site_fract_z
_atom_site_U_iso_or_equiv
Cr 0.00000 0.00000 0.00000 0.00684
O2 0.00000 0.00000 0.60000 0.00684
O-h1 0.00000 0.00000 0.40910 0.00684
D 0.00000 0.00000 0.48680 0.00684
