#------------------------------------------------------------------------------
#$Date: 2016-02-16 14:49:47 +0200 (Tue, 16 Feb 2016) $
#$Revision: 176465 $
#$URL: svn://www.crystallography.net/cod/cif/9/01/24/9012497.cif $
#------------------------------------------------------------------------------
#
# This file is available in the Crystallography Open Database (COD),
# http://www.crystallography.net/. The original data for this entry
# were provided the American Mineralogist Crystal Structure Database,
# http://rruff.geo.arizona.edu/AMS/amcsd.php
#
# The file may be used within the scientific community so long as
# proper attribution is given to the journal article from which the
# data were obtained.
#
data_9012497
loop_
_publ_author_name
'Skakle, J. M. S.'
'Dickson, C. L.'
'Glasser, F. P.'
_publ_section_title
;
 The crystal structures of CeSiO4 and Ca2Ce8(SiO4)6O2
 Locality: synthetic
;
_journal_name_full               'Powder Diffraction'
_journal_page_first              234
_journal_page_last               238
_journal_paper_doi               10.1017/S0885715600011143
_journal_volume                  15
_journal_year                    2000
_chemical_formula_sum            'Ce O4 Si'
_chemical_name_mineral           Stetindite
_space_group_IT_number           141
_symmetry_space_group_name_Hall  '-I 4bd 2'
_symmetry_space_group_name_H-M   'I 41/a m d :2'
_cell_angle_alpha                90
_cell_angle_beta                 90
_cell_angle_gamma                90
_cell_length_a                   6.9564
_cell_length_b                   6.9564
_cell_length_c                   6.1953
_cell_volume                     299.800
_exptl_crystal_density_diffrn    5.144
_cod_original_sg_symbol_H-M      'I 41/a m d'
_cod_original_formula_sum        'Ce Si O4'
_cod_database_code               9012497
loop_
_symmetry_equiv_pos_as_xyz
x,y,z
1/2+x,1/2+y,1/2+z
1/4-y,3/4-x,1/4+z
3/4-y,1/4-x,3/4+z
1/4+y,3/4+x,1/4-z
3/4+y,1/4+x,3/4-z
1/4+y,3/4-x,1/4-z
3/4+y,1/4-x,3/4-z
1/4-y,3/4+x,1/4+z
3/4-y,1/4+x,3/4+z
1/2+x,-y,1/2+z
+x,1/2-y,+z
1/2-x,y,1/2-z
-x,1/2+y,-z
1/2+x,y,1/2-z
+x,1/2+y,-z
1/2-x,-y,1/2+z
-x,1/2-y,+z
1/4+y,1/4+x,3/4+z
3/4+y,3/4+x,1/4+z
1/4-y,1/4-x,3/4-z
3/4-y,3/4-x,1/4-z
1/4-y,1/4+x,3/4-z
3/4-y,3/4+x,1/4-z
1/4+y,1/4-x,3/4+z
3/4+y,3/4-x,1/4+z
-x,y,z
1/2-x,1/2+y,1/2+z
x,-y,-z
1/2+x,1/2-y,1/2-z
-x,-y,-z
1/2-x,1/2-y,1/2-z
loop_
_atom_site_label
_atom_site_fract_x
_atom_site_fract_y
_atom_site_fract_z
_atom_site_U_iso_or_equiv
Ce 0.00000 0.75000 0.12500 0.00910
Si 0.00000 0.75000 0.62500 0.01700
O 0.00000 0.07020 0.19890 0.01200
