#------------------------------------------------------------------------------
#$Date: 2016-02-16 14:49:47 +0200 (Tue, 16 Feb 2016) $
#$Revision: 176465 $
#$URL: svn://www.crystallography.net/cod/cif/9/01/37/9013747.cif $
#------------------------------------------------------------------------------
#
# This file is available in the Crystallography Open Database (COD),
# http://www.crystallography.net/. The original data for this entry
# were provided the American Mineralogist Crystal Structure Database,
# http://rruff.geo.arizona.edu/AMS/amcsd.php
#
# The file may be used within the scientific community so long as
# proper attribution is given to the journal article from which the
# data were obtained.
#
data_9013747
loop_
_publ_author_name
'Hawthorne, F. C.'
'Ungaretti, L.'
'Oberti, R.'
'Caucia, F.'
'Callegari, A.'
_publ_section_title
;The crystal chemistry of staurolite. I. Crystal structure and site
 populations Sample Code: 106038/3 Locality: Franklin, North Carolina, USA
;
_journal_name_full               'The Canadian Mineralogist'
_journal_page_first              551
_journal_page_last               582
_journal_volume                  31
_journal_year                    1993
_chemical_formula_sum            'Al4.529 Fe0.654 Mg0.273 O12 Si1.86 Zn0.162'
_chemical_name_mineral           Staurolite
_space_group_IT_number           12
_symmetry_space_group_name_Hall  '-C 2y'
_symmetry_space_group_name_H-M   'C 1 2/m 1'
_cell_angle_alpha                90
_cell_angle_beta                 90.087
_cell_angle_gamma                90
_cell_length_a                   7.8772
_cell_length_b                   16.6060
_cell_length_c                   5.6568
_cell_volume                     739.958
_exptl_crystal_density_diffrn    3.772
_cod_original_formula_sum        'O12 Si1.86 Al4.529 Fe.654 Zn.162 Mg.273'
_cod_database_code               9013747
loop_
_symmetry_equiv_pos_as_xyz
x,y,z
1/2+x,1/2+y,z
x,-y,z
1/2+x,1/2-y,z
-x,y,-z
1/2-x,1/2+y,-z
-x,-y,-z
1/2-x,1/2-y,-z
loop_
_atom_site_aniso_label
_atom_site_aniso_U_11
_atom_site_aniso_U_22
_atom_site_aniso_U_33
_atom_site_aniso_U_12
_atom_site_aniso_U_13
_atom_site_aniso_U_23
O1 0.01100 0.00419 0.01102 0.00000 0.00248 0.00000
O2 0.01100 0.00419 0.01086 0.00000 -0.00248 0.00000
O3 0.00503 0.00559 0.00551 -0.00066 0.00045 0.00000
O4 0.00534 0.00559 0.00567 0.00133 -0.00045 0.00000
O5 0.00440 0.00699 0.01378 0.00000 -0.00023 -0.00048
O6 0.00597 0.00419 0.00648 0.00000 0.00000 0.00095
O7 0.00440 0.00559 0.00616 0.00000 -0.00023 0.00000
Si1 0.00346 0.00419 0.00486 0.00000 0.00000 0.00000
Al1 0.00346 0.00419 0.00486 0.00000 0.00000 0.00000
Fe1 0.01603 0.00559 0.02140 0.00000 -0.00023 0.00000
Zn1 0.01603 0.00559 0.02140 0.00000 -0.00023 0.00000
Al2 0.01603 0.00559 0.02140 0.00000 -0.00023 0.00000
Mg1 0.01603 0.00559 0.02140 0.00000 -0.00023 0.00000
Al3 0.00440 0.00419 0.00438 0.00000 0.00000 0.00000
Mg3 0.00440 0.00419 0.00438 0.00000 0.00000 0.00000
Al4 0.00440 0.00419 0.00421 0.00000 0.00000 0.00000
Mg4 0.00440 0.00419 0.00421 0.00000 0.00000 0.00000
Al5 0.00440 0.00559 0.00746 0.00000 0.00000 0.00000
Mg5 0.00440 0.00559 0.00746 0.00000 0.00000 0.00000
Fe5 0.00440 0.00559 0.00746 0.00000 0.00000 0.00000
Al6 0.00440 0.00419 0.00713 0.00000 0.00316 0.00000
Mg6 0.00440 0.00419 0.00713 0.00000 0.00316 0.00000
Al7 0.00409 0.00419 0.00665 0.00000 -0.00339 0.00000
Mg7 0.00409 0.00419 0.00665 0.00000 -0.00339 0.00000
loop_
_atom_site_label
_atom_site_fract_x
_atom_site_fract_y
_atom_site_fract_z
_atom_site_occupancy
_atom_site_U_iso_or_equiv
O1 0.23422 0.00000 0.96447 1.00000 ?
O2 0.23509 0.00000 0.53408 1.00000 ?
O3 0.25539 0.16130 0.01511 1.00000 ?
O4 0.25491 0.16123 0.48467 1.00000 ?
O5 0.00133 0.08880 0.24831 1.00000 ?
O6 0.02126 0.24947 0.24981 1.00000 ?
O7 0.52662 0.09941 0.24975 1.00000 ?
Si1 0.13416 0.16622 0.24953 0.93000 ?
Al1 0.13416 0.16622 0.24953 0.07000 ?
Fe1 0.38986 0.00000 0.24898 0.60500 ?
Zn1 0.38986 0.00000 0.24898 0.16200 ?
Al2 0.38986 0.00000 0.24898 0.01000 ?
Mg1 0.38986 0.00000 0.24898 0.15800 ?
Al3 0.50000 0.17494 0.00000 0.96700 ?
Mg3 0.50000 0.17494 0.00000 0.03300 ?
Al4 0.50000 0.17492 0.50000 0.96700 ?
Mg4 0.50000 0.17492 0.50000 0.03300 ?
Al5 0.26273 0.41037 0.25056 0.98500 ?
Mg5 0.26273 0.41037 0.25056 0.00800 ?
Fe5 0.26273 0.41037 0.25056 0.00700 ?
Al6 0.00000 0.00000 0.00000 0.52000 ?
Mg6 0.00000 0.00000 0.00000 0.03500 ?
Al7 0.00000 0.00000 0.50000 0.43000 ?
Mg7 0.00000 0.00000 0.50000 0.03000 ?
Fe8 0.50000 0.00000 0.00000 0.04000 0.01320
Fe9 0.50000 0.00000 0.50000 0.03000 0.01104
