#------------------------------------------------------------------------------
#$Date: 2016-02-16 14:49:47 +0200 (Tue, 16 Feb 2016) $
#$Revision: 176465 $
#$URL: svn://www.crystallography.net/cod/cif/9/01/37/9013753.cif $
#------------------------------------------------------------------------------
#
# This file is available in the Crystallography Open Database (COD),
# http://www.crystallography.net/. The original data for this entry
# were provided the American Mineralogist Crystal Structure Database,
# http://rruff.geo.arizona.edu/AMS/amcsd.php
#
# The file may be used within the scientific community so long as
# proper attribution is given to the journal article from which the
# data were obtained.
#
data_9013753
loop_
_publ_author_name
'Hawthorne, F. C.'
'Ungaretti, L.'
'Oberti, R.'
'Caucia, F.'
'Callegari, A.'
_publ_section_title
;The crystal chemistry of staurolite. I. Crystal structure and site
 populations Sample Code: WARD/7 Locality: Fiordland, New Zealand
;
_journal_name_full               'The Canadian Mineralogist'
_journal_page_first              551
_journal_page_last               582
_journal_volume                  31
_journal_year                    1993
_chemical_formula_sum            'Al4.44 Fe0.74 Mg0.347 O12 Si1.92'
_chemical_name_mineral           Staurolite
_space_group_IT_number           12
_symmetry_space_group_name_Hall  '-C 2y'
_symmetry_space_group_name_H-M   'C 1 2/m 1'
_cell_angle_alpha                90
_cell_angle_beta                 90.122
_cell_angle_gamma                90
_cell_length_a                   7.8719
_cell_length_b                   16.6118
_cell_length_c                   5.6547
_cell_volume                     739.443
_exptl_crystal_density_diffrn    3.732
_cod_original_formula_sum        'O12 Si1.92 Al4.44 Fe.74 Mg.347'
_cod_database_code               9013753
loop_
_symmetry_equiv_pos_as_xyz
x,y,z
1/2+x,1/2+y,z
x,-y,z
1/2+x,1/2-y,z
-x,y,-z
1/2-x,1/2+y,-z
-x,-y,-z
1/2-x,1/2-y,-z
loop_
_atom_site_aniso_label
_atom_site_aniso_U_11
_atom_site_aniso_U_22
_atom_site_aniso_U_33
_atom_site_aniso_U_12
_atom_site_aniso_U_13
_atom_site_aniso_U_23
O1 0.01099 0.00419 0.01231 0.00000 0.00271 0.00000
O2 0.01162 0.00419 0.01183 0.00000 -0.00203 0.00000
O3 0.00471 0.00559 0.00535 -0.00132 0.00113 -0.00048
O4 0.00502 0.00699 0.00583 0.00132 -0.00045 0.00000
O5 0.00439 0.00699 0.01296 0.00000 -0.00023 -0.00048
O6 0.00565 0.00419 0.00648 0.00000 0.00000 0.00095
O7 0.00408 0.00559 0.00632 0.00000 -0.00023 -0.00048
Si1 0.00283 0.00419 0.00486 0.00000 0.00000 0.00000
Al1 0.00283 0.00419 0.00486 0.00000 0.00000 0.00000
Fe1 0.01758 0.00559 0.02316 0.00000 -0.00045 0.00000
Al2 0.01758 0.00559 0.02316 0.00000 -0.00045 0.00000
Mg1 0.01758 0.00559 0.02316 0.00000 -0.00045 0.00000
Al3 0.00471 0.00559 0.00518 0.00000 0.00000 0.00000
Mg3 0.00471 0.00559 0.00518 0.00000 0.00000 0.00000
Fe3 0.00471 0.00559 0.00518 0.00000 0.00000 0.00000
Al4 0.00471 0.00559 0.00502 0.00000 0.00023 0.00000
Mg4 0.00471 0.00559 0.00502 0.00000 0.00023 0.00000
Fe4 0.00471 0.00559 0.00502 0.00000 0.00023 0.00000
Al5 0.00439 0.00559 0.00826 0.00000 0.00000 0.00000
Mg5 0.00439 0.00559 0.00826 0.00000 0.00000 0.00000
Fe5 0.00439 0.00559 0.00826 0.00000 0.00000 0.00000
Al6 0.00534 0.00559 0.00826 0.00000 0.00248 0.00000
Mg6 0.00534 0.00559 0.00826 0.00000 0.00248 0.00000
Fe6 0.00534 0.00559 0.00826 0.00000 0.00248 0.00000
Al7 0.00534 0.00559 0.00891 0.00000 -0.00316 0.00000
Fe7 0.00534 0.00559 0.00891 0.00000 -0.00316 0.00000
Mg7 0.00534 0.00559 0.00891 0.00000 -0.00316 0.00000
loop_
_atom_site_label
_atom_site_fract_x
_atom_site_fract_y
_atom_site_fract_z
_atom_site_occupancy
_atom_site_U_iso_or_equiv
O1 0.23434 0.00000 0.96393 1.00000 ?
O2 0.23598 0.00000 0.53260 1.00000 ?
O3 0.25536 0.16134 0.01550 1.00000 ?
O4 0.25448 0.16120 0.48397 1.00000 ?
O5 0.00162 0.08911 0.24689 1.00000 ?
O6 0.02168 0.24934 0.24987 1.00000 ?
O7 0.52703 0.09981 0.24962 1.00000 ?
Si1 0.13413 0.16621 0.24909 0.96000 ?
Al1 0.13413 0.16621 0.24909 0.04000 ?
Fe1 0.39155 0.00000 0.24836 0.58000 ?
Al2 0.39155 0.00000 0.24836 0.11000 ?
Mg1 0.39155 0.00000 0.24836 0.21000 ?
Al3 0.50000 0.17494 0.00000 0.94000 ?
Mg3 0.50000 0.17494 0.00000 0.04500 ?
Fe3 0.50000 0.17494 0.00000 0.01500 ?
Al4 0.50000 0.17485 0.50000 0.94000 ?
Mg4 0.50000 0.17485 0.50000 0.04500 ?
Fe4 0.50000 0.17485 0.50000 0.01500 ?
Al5 0.26320 0.41056 0.25101 0.96000 ?
Mg5 0.26320 0.41056 0.25101 0.01000 ?
Fe5 0.26320 0.41056 0.25101 0.03000 ?
Al6 0.00000 0.00000 0.00000 0.52000 ?
Mg6 0.00000 0.00000 0.00000 0.05000 ?
Fe6 0.00000 0.00000 0.00000 0.01000 ?
Al7 0.00000 0.00000 0.50000 0.38000 ?
Fe7 0.00000 0.00000 0.50000 0.03500 ?
Mg7 0.00000 0.00000 0.50000 0.00500 ?
Fe8 0.50000 0.00000 0.00000 0.06000 1.06800
Fe9 0.50000 0.00000 0.50000 0.03500 0.91000
