#------------------------------------------------------------------------------
#$Date: 2016-02-16 14:49:47 +0200 (Tue, 16 Feb 2016) $
#$Revision: 176465 $
#$URL: svn://www.crystallography.net/cod/cif/9/01/39/9013907.cif $
#------------------------------------------------------------------------------
#
# This file is available in the Crystallography Open Database (COD),
# http://www.crystallography.net/. The original data for this entry
# were provided the American Mineralogist Crystal Structure Database,
# http://rruff.geo.arizona.edu/AMS/amcsd.php
#
# The file may be used within the scientific community so long as
# proper attribution is given to the journal article from which the
# data were obtained.
#
data_9013907
loop_
_publ_author_name
'Macavei, J.'
'Schulz, H.'
_publ_section_title
;
 The crystal structure of wolframite type tungstates at high pressure
 Locality: synthetic
 Note: P = 0.0001 GPa, in air
;
_journal_name_full               'Zeitschrift fur Kristallographie'
_journal_page_first              193
_journal_page_last               208
_journal_volume                  207
_journal_year                    1993
_chemical_formula_structural     Mn(WO4)
_chemical_formula_sum            'Mn O4 W'
_chemical_name_mineral           Huebnerite
_space_group_IT_number           13
_symmetry_space_group_name_Hall  '-P 2yc'
_symmetry_space_group_name_H-M   'P 1 2/c 1'
_cell_angle_alpha                90
_cell_angle_beta                 91.14
_cell_angle_gamma                90
_cell_length_a                   4.830
_cell_length_b                   5.7603
_cell_length_c                   4.994
_cell_volume                     138.917
_diffrn_ambient_pressure         100
_exptl_crystal_density_diffrn    7.239
_cod_original_formula_sum        'Mn W O4'
_cod_database_code               9013907
loop_
_symmetry_equiv_pos_as_xyz
x,y,z
x,-y,1/2+z
-x,y,1/2-z
-x,-y,-z
loop_
_atom_site_label
_atom_site_fract_x
_atom_site_fract_y
_atom_site_fract_z
_atom_site_U_iso_or_equiv
Mn 0.50000 0.68560 0.25000 0.01080
W 0.00000 0.18000 0.25000 0.00600
O1 0.21100 0.10200 0.94300 0.01000
O2 0.25000 0.37400 0.39300 0.01100
