#------------------------------------------------------------------------------
#$Date: 2016-02-16 14:49:47 +0200 (Tue, 16 Feb 2016) $
#$Revision: 176465 $
#$URL: svn://www.crystallography.net/cod/cif/9/01/38/9013866.cif $
#------------------------------------------------------------------------------
#
# This file is available in the Crystallography Open Database (COD),
# http://www.crystallography.net/. The original data for this entry
# were provided the American Mineralogist Crystal Structure Database,
# http://rruff.geo.arizona.edu/AMS/amcsd.php
#
# The file may be used within the scientific community so long as
# proper attribution is given to the journal article from which the
# data were obtained.
#
data_9013866
loop_
_publ_author_name
'Camara, F.'
'Nestola, F.'
'Angel, R. J.'
'Ohashi, H.'
_publ_section_title
;
 Spontaneous strain variations through the low-temperature displacive
 phase transition of LiGaSi2O6 clinopyroxene
 Locality: synthetic
 Note: T = 323 K
;
_journal_name_full               'European Journal of Mineralogy'
_journal_page_first              599
_journal_page_last               614
_journal_paper_doi               10.1127/0935-1221/2009/0021-1926
_journal_volume                  21
_journal_year                    2009
_chemical_formula_structural     LiGa(Si2O6)
_chemical_formula_sum            'Ga Li O6 Si2'
_space_group_IT_number           15
_symmetry_space_group_name_Hall  '-C 2yc'
_symmetry_space_group_name_H-M   'C 1 2/c 1'
_cell_angle_alpha                90
_cell_angle_beta                 110.219
_cell_angle_gamma                90
_cell_length_a                   9.5614
_cell_length_b                   8.5698
_cell_length_c                   5.2677
_cell_volume                     405.034
_diffrn_ambient_temperature      323
_exptl_crystal_density_diffrn    3.753
_cod_original_formula_sum        'Li Ga Si2 O6'
_cod_database_code               9013866
loop_
_symmetry_equiv_pos_as_xyz
x,y,z
1/2+x,1/2+y,z
x,-y,1/2+z
1/2+x,1/2-y,1/2+z
-x,y,1/2-z
1/2-x,1/2+y,1/2-z
-x,-y,-z
1/2-x,1/2-y,-z
loop_
_atom_site_aniso_label
_atom_site_aniso_U_11
_atom_site_aniso_U_22
_atom_site_aniso_U_33
_atom_site_aniso_U_12
_atom_site_aniso_U_13
_atom_site_aniso_U_23
LiM2 0.02100 0.01900 0.01500 0.00000 0.00800 0.00000
GaM1 0.00570 0.00490 0.00640 0.00000 0.00181 0.00000
Si 0.00510 0.00540 0.00580 -0.00090 0.00150 -0.00010
O1 0.00460 0.00650 0.00750 -0.00100 0.00120 0.00030
O2 0.00930 0.00870 0.01360 -0.00170 0.00530 -0.00170
O3 0.00760 0.01530 0.01040 -0.00090 0.00310 -0.00470
loop_
_atom_site_label
_atom_site_fract_x
_atom_site_fract_y
_atom_site_fract_z
_atom_site_U_iso_or_equiv
LiM2 0.00000 0.26550 0.25000 0.01790
GaM1 0.00000 0.90151 0.25000 0.00570
Si 0.29656 0.09108 0.26062 0.00550
O1 0.11350 0.08378 0.14380 0.00650
O2 0.36536 0.26180 0.32290 0.01020
O3 0.35693 0.00010 0.04910 0.01110
