#------------------------------------------------------------------------------
#$Date: 2016-02-16 14:49:47 +0200 (Tue, 16 Feb 2016) $
#$Revision: 176465 $
#$URL: svn://www.crystallography.net/cod/cif/9/01/37/9013743.cif $
#------------------------------------------------------------------------------
#
# This file is available in the Crystallography Open Database (COD),
# http://www.crystallography.net/. The original data for this entry
# were provided the American Mineralogist Crystal Structure Database,
# http://rruff.geo.arizona.edu/AMS/amcsd.php
#
# The file may be used within the scientific community so long as
# proper attribution is given to the journal article from which the
# data were obtained.
#
data_9013743
loop_
_publ_author_name
'Hawthorne, F. C.'
'Ungaretti, L.'
'Oberti, R.'
'Caucia, F.'
'Callegari, A.'
_publ_section_title
;The crystal chemistry of staurolite. I. Crystal structure and site
 populations Sample Code: EH-6/2 Locality: Emery Hill, New York, USA
;
_journal_name_full               'The Canadian Mineralogist'
_journal_page_first              551
_journal_page_last               582
_journal_volume                  31
_journal_year                    1993
_chemical_formula_sum            'Al4.35 Fe0.745 Mg0.42 O12 Si1.93 Zn0.015'
_chemical_name_mineral           Staurolite
_space_group_IT_number           12
_symmetry_space_group_name_Hall  '-C 2y'
_symmetry_space_group_name_H-M   'C 1 2/m 1'
_cell_angle_alpha                90
_cell_angle_beta                 90.056
_cell_angle_gamma                90
_cell_length_a                   7.8810
_cell_length_b                   16.6250
_cell_length_c                   5.6610
_cell_volume                     741.713
_exptl_crystal_density_diffrn    3.729
_cod_original_formula_sum        'O12 Si1.93 Al4.35 Fe.745 Zn.015 Mg.42'
_cod_database_code               9013743
loop_
_symmetry_equiv_pos_as_xyz
x,y,z
1/2+x,1/2+y,z
x,-y,z
1/2+x,1/2-y,z
-x,y,-z
1/2-x,1/2+y,-z
-x,-y,-z
1/2-x,1/2-y,-z
loop_
_atom_site_aniso_label
_atom_site_aniso_U_11
_atom_site_aniso_U_22
_atom_site_aniso_U_33
_atom_site_aniso_U_12
_atom_site_aniso_U_13
_atom_site_aniso_U_23
O1 0.01259 0.00420 0.01185 0.00000 0.00316 0.00000
O2 0.01259 0.00420 0.01218 0.00000 -0.00271 0.00000
O3 0.00503 0.00560 0.00617 -0.00133 0.00068 0.00000
O4 0.00503 0.00560 0.00633 0.00133 -0.00023 -0.00048
O5 0.00503 0.00700 0.01348 0.00000 0.00023 -0.00048
O6 0.00598 0.00420 0.00714 0.00000 0.00023 0.00048
O7 0.00472 0.00560 0.00714 0.00066 0.00023 -0.00048
Si1 0.00315 0.00280 0.00520 0.00000 0.00000 0.00000
Al1 0.00315 0.00280 0.00520 0.00000 0.00000 0.00000
Fe1 0.01668 0.00560 0.02192 0.00000 -0.00023 0.00000
Al2 0.01668 0.00560 0.02192 0.00000 -0.00023 0.00000
Zn1 0.01668 0.00560 0.02192 0.00000 -0.00023 0.00000
Mg1 0.01668 0.00560 0.02192 0.00000 -0.00023 0.00000
Al3 0.00535 0.00420 0.00503 0.00000 0.00000 0.00000
Fe3 0.00535 0.00420 0.00503 0.00000 0.00000 0.00000
Mg2 0.00535 0.00420 0.00503 0.00000 0.00000 0.00000
Al4 0.00535 0.00560 0.00520 0.00000 0.00023 0.00000
Fe4 0.00535 0.00560 0.00520 0.00000 0.00023 0.00000
Mg3 0.00535 0.00560 0.00520 0.00000 0.00023 0.00000
Al5 0.00441 0.00560 0.00860 0.00000 0.00023 0.00000
Mg5 0.00441 0.00560 0.00860 0.00000 0.00023 0.00000
Fe5 0.00441 0.00560 0.00860 0.00000 0.00023 0.00000
Al6 0.00503 0.00420 0.00925 0.00000 0.00362 0.00000
Mg6 0.00503 0.00420 0.00925 0.00000 0.00362 0.00000
Al7 0.00566 0.00420 0.00958 0.00000 -0.00339 0.00000
Mg7 0.00566 0.00420 0.00958 0.00000 -0.00339 0.00000
loop_
_atom_site_label
_atom_site_fract_x
_atom_site_fract_y
_atom_site_fract_z
_atom_site_occupancy
_atom_site_U_iso_or_equiv
O1 0.23553 0.00000 0.96472 1.00000 ?
O2 0.23645 0.00000 0.53412 1.00000 ?
O3 0.25515 0.16110 0.01553 1.00000 ?
O4 0.25460 0.16104 0.48434 1.00000 ?
O5 0.00106 0.08909 0.24833 1.00000 ?
O6 0.02201 0.24932 0.24952 1.00000 ?
O7 0.52647 0.09941 0.24981 1.00000 ?
Si1 0.13399 0.16612 0.24945 0.96500 ?
Al1 0.13399 0.16612 0.24946 0.03500 ?
Fe1 0.39042 0.00000 0.24901 0.64500 ?
Al2 0.39042 0.00000 0.24901 0.02000 ?
Zn1 0.39042 0.00000 0.24901 0.01500 ?
Mg1 0.39042 0.00000 0.24901 0.24000 ?
Al3 0.50000 0.17518 0.00000 0.93500 ?
Fe3 0.50000 0.17518 0.00000 0.01500 ?
Mg2 0.50000 0.17518 0.00000 0.05000 ?
Al4 0.50000 0.17523 0.50000 0.93500 ?
Fe4 0.50000 0.17523 0.50000 0.01500 ?
Mg3 0.50000 0.17523 0.50000 0.05000 ?
Al5 0.26259 0.41050 0.25065 0.96500 ?
Mg5 0.26259 0.41050 0.25065 0.01500 ?
Fe5 0.26259 0.41050 0.25065 0.02000 ?
Al6 0.00000 0.00000 0.00000 0.49500 ?
Mg6 0.00000 0.00000 0.00000 0.05500 ?
Al7 0.00000 0.00000 0.50000 0.42500 ?
Mg7 0.00000 0.00000 0.50000 0.04500 ?
Fe8 0.50000 0.00000 0.00000 0.03000 0.01210
Fe9 0.50000 0.00000 0.50000 0.03000 0.01493
