#------------------------------------------------------------------------------
#$Date: 2016-02-16 14:49:47 +0200 (Tue, 16 Feb 2016) $
#$Revision: 176465 $
#$URL: svn://www.crystallography.net/cod/cif/9/01/36/9013655.cif $
#------------------------------------------------------------------------------
#
# This file is available in the Crystallography Open Database (COD),
# http://www.crystallography.net/. The original data for this entry
# were provided the American Mineralogist Crystal Structure Database,
# http://rruff.geo.arizona.edu/AMS/amcsd.php
#
# The file may be used within the scientific community so long as
# proper attribution is given to the journal article from which the
# data were obtained.
#
data_9013655
loop_
_publ_author_name
'Yang, H.'
'Konzett, J.'
'Frost, D. J.'
'Downs, R. T.'
_publ_section_title
;X-ray diffraction and Raman spectroscopic study of clinopyroxenes with
 six-coordinated Si in the Na(Mg0.5Si0.5)Si2O6 - NaAlSi2O6 system Note: Sample
 J3
;
_journal_name_full               'American Mineralogist'
_journal_page_first              942
_journal_page_last               949
_journal_paper_doi               10.2138/am.2009.3084
_journal_volume                  94
_journal_year                    2009
_chemical_formula_structural     (Na.97Mg.03)(Mg.37Al.30Si.33)Si2O6
_chemical_formula_sum            'Al0.3 Mg0.4 Na0.97 O6 Si2.33'
_space_group_IT_number           15
_symmetry_space_group_name_Hall  '-C 2yc'
_symmetry_space_group_name_H-M   'C 1 2/c 1'
_cell_angle_alpha                90
_cell_angle_beta                 107.833
_cell_angle_gamma                90
_cell_length_a                   9.4410
_cell_length_b                   8.6038
_cell_length_c                   5.2547
_cell_volume                     406.323
_exptl_crystal_density_diffrn    3.295
_cod_original_formula_sum        'Na.97 Mg.4 Al.3 Si2.33 O6'
_cod_database_code               9013655
loop_
_symmetry_equiv_pos_as_xyz
x,y,z
1/2+x,1/2+y,z
x,-y,1/2+z
1/2+x,1/2-y,1/2+z
-x,y,1/2-z
1/2-x,1/2+y,1/2-z
-x,-y,-z
1/2-x,1/2-y,-z
loop_
_atom_site_aniso_label
_atom_site_aniso_U_11
_atom_site_aniso_U_22
_atom_site_aniso_U_33
_atom_site_aniso_U_12
_atom_site_aniso_U_13
_atom_site_aniso_U_23
NaM2 0.02015 0.01108 0.01050 0.00000 -0.00173 0.00000
MgM2 0.02015 0.01108 0.01050 0.00000 -0.00173 0.00000
MgM1 0.00693 0.00730 0.00471 0.00000 0.00114 0.00000
AlM1 0.00693 0.00730 0.00471 0.00000 0.00114 0.00000
SiM1 0.00693 0.00730 0.00471 0.00000 0.00114 0.00000
Si 0.00702 0.00982 0.00506 0.00007 0.00132 -0.00092
O1 0.00744 0.02326 0.02013 0.00087 0.00145 -0.01167
O2 0.02092 0.01079 0.01111 -0.00122 0.00472 -0.00069
O3 0.01209 0.01681 0.00633 0.00393 0.00298 -0.00150
loop_
_atom_site_label
_atom_site_fract_x
_atom_site_fract_y
_atom_site_fract_z
_atom_site_occupancy
_atom_site_U_iso_or_equiv
NaM2 0.00000 0.29901 0.25000 0.97000 0.01536
MgM2 0.00000 0.29901 0.25000 0.03000 0.01536
MgM1 0.00000 0.90483 0.25000 0.37000 0.00646
AlM1 0.00000 0.90483 0.25000 0.30000 0.00646
SiM1 0.00000 0.90483 0.25000 0.33000 0.00646
Si 0.29054 0.09252 0.23014 1.00000 0.00742
O1 0.10928 0.07672 0.12931 1.00000 0.01757
O2 0.36067 0.26192 0.29734 1.00000 0.01432
O3 0.35323 0.00760 0.00861 1.00000 0.01171
