#------------------------------------------------------------------------------
#$Date: 2016-02-16 14:49:47 +0200 (Tue, 16 Feb 2016) $
#$Revision: 176465 $
#$URL: svn://www.crystallography.net/cod/cif/9/01/36/9013653.cif $
#------------------------------------------------------------------------------
#
# This file is available in the Crystallography Open Database (COD),
# http://www.crystallography.net/. The original data for this entry
# were provided the American Mineralogist Crystal Structure Database,
# http://rruff.geo.arizona.edu/AMS/amcsd.php
#
# The file may be used within the scientific community so long as
# proper attribution is given to the journal article from which the
# data were obtained.
#
data_9013653
loop_
_publ_author_name
'Yang, H.'
'Konzett, J.'
'Frost, D. J.'
'Downs, R. T.'
_publ_section_title
;X-ray diffraction and Raman spectroscopic study of clinopyroxenes with
 six-coordinated Si in the Na(Mg0.5Si0.5)Si2O6 - NaAlSi2O6 system Note: Sample
 J1
;
_journal_name_full               'American Mineralogist'
_journal_page_first              942
_journal_page_last               949
_journal_paper_doi               10.2138/am.2009.3084
_journal_volume                  94
_journal_year                    2009
_chemical_formula_structural     (Na.98Mg.02)(Mg.51Si.49)Si2O6
_chemical_formula_sum            'Mg0.52 Na0.98 O6 Si2.98'
_space_group_IT_number           13
_symmetry_space_group_name_Hall  '-P 2yac'
_symmetry_space_group_name_H-M   'P 1 2/n 1'
_cell_angle_alpha                90
_cell_angle_beta                 108.142
_cell_angle_gamma                90
_cell_length_a                   9.4051
_cell_length_b                   8.6436
_cell_length_c                   5.2679
_cell_volume                     406.959
_exptl_crystal_density_diffrn    3.507
_cod_original_formula_sum        'Na.98 Mg.52 Si2.98 O6'
_cod_database_code               9013653
loop_
_symmetry_equiv_pos_as_xyz
x,y,z
1/2-x,y,1/2-z
1/2+x,-y,1/2+z
-x,-y,-z
loop_
_atom_site_aniso_label
_atom_site_aniso_U_11
_atom_site_aniso_U_22
_atom_site_aniso_U_33
_atom_site_aniso_U_12
_atom_site_aniso_U_13
_atom_site_aniso_U_23
NaM2 0.01223 0.00892 0.00861 0.00000 0.00034 0.00000
MgM2 0.01223 0.00892 0.00861 0.00000 0.00034 0.00000
NaM21 0.02062 0.00885 0.01238 0.00000 -0.00158 0.00000
MgM1 0.00701 0.00636 0.00695 0.00000 0.00170 0.00000
SiM11 0.00512 0.00464 0.00572 0.00000 0.00158 0.00000
SiM1 0.00512 0.00464 0.00572 0.00000 0.00158 0.00000
Si1 0.00581 0.00573 0.00601 -0.00043 0.00155 -0.00017
Si2 0.00566 0.00589 0.00625 0.00031 0.00177 0.00045
O1 0.00594 0.00877 0.00694 -0.00063 0.00089 -0.00056
O2 0.00551 0.00827 0.00832 0.00058 0.00238 -0.00034
O3 0.00990 0.00644 0.00931 -0.00196 0.00331 -0.00028
O4 0.01193 0.00868 0.01200 0.00181 0.00371 0.00040
O5 0.00757 0.01000 0.00807 -0.00009 0.00230 -0.00205
O6 0.00836 0.00957 0.00743 -0.00124 0.00267 0.00180
loop_
_atom_site_label
_atom_site_fract_x
_atom_site_fract_y
_atom_site_fract_z
_atom_site_occupancy
_atom_site_U_iso_or_equiv
NaM2 0.75000 0.05151 0.25000 0.96000 0.01059
MgM2 0.75000 0.05151 0.25000 0.04000 0.01059
NaM21 0.75000 0.45644 0.75000 1.00000 0.01549
MgM1 0.75000 0.65466 0.25000 1.00000 0.00688
SiM11 0.75000 0.84705 0.75000 0.98000 0.00518
SiM1 0.75000 0.84705 0.75000 0.98000 0.00518
Si1 0.04470 0.84848 0.22631 1.00000 0.00592
Si2 0.03724 0.66527 0.73569 1.00000 0.00596
O1 0.86221 0.84423 0.10170 1.00000 0.00747
O2 0.85625 0.69303 0.65646 1.00000 0.00731
O3 0.12357 0.01500 0.30692 1.00000 0.00848
O4 0.09819 0.49496 0.79057 1.00000 0.01087
O5 0.11251 0.76685 0.01196 1.00000 0.00858
O6 0.09258 0.75262 0.50666 1.00000 0.00841
