#------------------------------------------------------------------------------
#$Date: 2017-10-06 19:24:22 +0300 (Fri, 06 Oct 2017) $
#$Revision: 201816 $
#$URL: file:///home/coder/svn-repositories/cod/cif/9/01/41/9014117.cif $
#------------------------------------------------------------------------------
#
# This file is available in the Crystallography Open Database (COD),
# http://www.crystallography.net/. The original data for this entry
# were provided the American Mineralogist Crystal Structure Database,
# http://rruff.geo.arizona.edu/AMS/amcsd.php
#
# The file may be used within the scientific community so long as
# proper attribution is given to the journal article from which the
# data were obtained.
#
data_9014117
loop_
_publ_author_name
'Periotto, B.'
'Balic-Zunic T'
'Nestola, F.'
'Katerinopoulou, A.'
'Angel, R. J.'
_publ_section_title
;
 Re-investigation of the crystal structure of enstatite under high-pressure conditions
 Note: P = 0.00010(1) GPa
;
_journal_name_full               'American Mineralogist'
_journal_page_first              1741
_journal_page_last               1748
_journal_paper_doi               10.2138/am.2012.4157
_journal_volume                  97
_journal_year                    2012
_chemical_compound_source        Synthetic
_chemical_formula_sum            'Mg O3 Si'
_chemical_name_mineral           Enstatite
_space_group_IT_number           61
_symmetry_space_group_name_Hall  '-P 2ac 2ab'
_symmetry_space_group_name_H-M   'P b c a'
_cell_angle_alpha                90
_cell_angle_beta                 90
_cell_angle_gamma                90
_cell_length_a                   18.210
_cell_length_b                   8.820
_cell_length_c                   5.1767
_cell_volume                     831.441
_database_code_amcsd             0019515
_exptl_crystal_density_diffrn    3.208
_cod_original_formula_sum        'Mg Si O3'
_cod_database_code               9014117
loop_
_space_group_symop_operation_xyz
x,y,z
x,1/2-y,1/2+z
-x,1/2+y,1/2-z
1/2-x,1/2+y,z
1/2+x,1/2-y,-z
1/2+x,y,1/2-z
1/2-x,-y,1/2+z
-x,-y,-z
loop_
_atom_site_label
_atom_site_fract_x
_atom_site_fract_y
_atom_site_fract_z
_atom_site_U_iso_or_equiv
Mg2 0.37690 0.48680 0.35890 0.00960
Mg1 0.37590 0.65380 0.86590 0.00690
SiTA 0.27146 0.34200 0.05050 0.00650
SiTB 0.47368 0.33700 0.79850 0.00520
O1A 0.18320 0.33920 0.03590 0.00400
O2A 0.31100 0.50220 0.04320 0.00800
O3A 0.30280 0.22320 0.82990 0.00560
O1B 0.56260 0.33960 0.79950 0.00470
O2B 0.43250 0.48200 0.68880 0.00750
O3B 0.44780 0.19570 0.60370 0.00390
loop_
_cod_related_entry_id
_cod_related_entry_database
_cod_related_entry_code
1 AMCSD 0019515
