#------------------------------------------------------------------------------
#$Date: 2017-10-06 19:24:22 +0300 (Fri, 06 Oct 2017) $
#$Revision: 201816 $
#$URL: file:///home/coder/svn-repositories/cod/cif/9/01/41/9014140.cif $
#------------------------------------------------------------------------------
#
# This file is available in the Crystallography Open Database (COD),
# http://www.crystallography.net/. The original data for this entry
# were provided the American Mineralogist Crystal Structure Database,
# http://rruff.geo.arizona.edu/AMS/amcsd.php
#
# The file may be used within the scientific community so long as
# proper attribution is given to the journal article from which the
# data were obtained.
#
data_9014140
loop_
_publ_author_name
'Yamanaka, T.'
'Ogata, K.'
_publ_section_title
;
 Structure refinement of GeO2 polymorphs at high pressures and
 temperatures by energy-dispersive spectra of powder diffraction
 Note: P = 2.9 GPa T = 493 K
 Note: quartz structure
;
_journal_name_full               'Journal of Applied Crystallography'
_journal_page_first              111
_journal_page_last               118
_journal_paper_doi               10.1107/S0021889890011153
_journal_volume                  24
_journal_year                    1991
_chemical_compound_source        Synthetic
_chemical_formula_sum            'Ge O2'
_symmetry_space_group_name_H-M   'P 32 2 1'
_cell_angle_alpha                90
_cell_angle_beta                 90
_cell_angle_gamma                120
_cell_length_a                   4.9097
_cell_length_b                   4.9097
_cell_length_c                   5.6249
_cell_volume                     117.424
_database_code_amcsd             0019060
_exptl_crystal_density_diffrn    4.438
_cod_database_code               9014140
_amcsd_formula_title             GeO2
loop_
_space_group_symop_operation_xyz
x,y,z
y,x,2/3-z
-y,x-y,2/3+z
-x,-x+y,1/3-z
-x+y,-x,1/3+z
x-y,-y,-z
loop_
_atom_site_label
_atom_site_fract_x
_atom_site_fract_y
_atom_site_fract_z
_atom_site_U_iso_or_equiv
Ge 0.45010 0.00000 0.00000 0.01140
O 0.39120 0.30430 0.08810 0.01646
loop_
_cod_related_entry_id
_cod_related_entry_database
_cod_related_entry_code
1 AMCSD 0019060
