#------------------------------------------------------------------------------
#$Date: 2017-10-06 19:24:22 +0300 (Fri, 06 Oct 2017) $
#$Revision: 201816 $
#$URL: file:///home/coder/svn-repositories/cod/cif/9/01/45/9014556.cif $
#------------------------------------------------------------------------------
#
# This file is available in the Crystallography Open Database (COD),
# http://www.crystallography.net/. The original data for this entry
# were provided the American Mineralogist Crystal Structure Database,
# http://rruff.geo.arizona.edu/AMS/amcsd.php
#
# The file may be used within the scientific community so long as
# proper attribution is given to the journal article from which the
# data were obtained.
#
data_9014556
loop_
_publ_author_name
'Knight, K. S.'
'Henderson, C. M. B.'
_publ_section_title
;
 Structural basis for the anomalous low-temperature thermal expansion
 behavior of the gillespite-structured phase Ba0.5Sr0.5CuSi4O10
 Sample: T = 100 K
;
_journal_name_full               'European Journal of Mineralogy'
_journal_page_first              189
_journal_page_last               200
_journal_paper_doi               10.1127/0935-1221/2007/0019-1711
_journal_volume                  19
_journal_year                    2007
_chemical_formula_sum            'Ba0.5 Cu O10 Si4 Sr0.5'
_chemical_name_mineral           Wesselsite
_space_group_IT_number           130
_symmetry_space_group_name_Hall  '-P 4a 2ac'
_symmetry_space_group_name_H-M   'P 4/n c c :2'
_cell_angle_alpha                90
_cell_angle_beta                 90
_cell_angle_gamma                90
_cell_length_a                   7.39533
_cell_length_b                   7.39533
_cell_length_c                   15.8482
_cell_volume                     866.752
_database_code_amcsd             0007210
_exptl_crystal_density_diffrn    3.436
_cod_original_sg_symbol_H-M      'P 4/n c c'
_cod_original_formula_sum        '(Ba.5 Sr.5) Cu Si4 O10'
_cod_database_code               9014556
loop_
_space_group_symop_operation_xyz
x,y,z
1/2-y,1/2-x,1/2+z
1/2+y,1/2+x,1/2-z
1/2+y,-x,-z
1/2-y,x,z
x,1/2-y,1/2+z
-x,1/2+y,1/2-z
1/2+x,1/2+y,-z
1/2-x,1/2-y,z
y,x,1/2+z
-y,-x,1/2-z
-y,1/2+x,-z
y,1/2-x,z
1/2-x,y,1/2+z
1/2+x,-y,1/2-z
-x,-y,-z
loop_
_atom_site_label
_atom_site_fract_x
_atom_site_fract_y
_atom_site_fract_z
_atom_site_occupancy
_atom_site_U_iso_or_equiv
Ba 0.25000 0.75000 0.00000 0.50000 0.03780
Sr 0.25000 0.75000 0.00000 0.50000 0.03780
Cu 0.25000 0.25000 0.09160 1.00000 0.05700
Si 0.51230 0.93360 0.15183 1.00000 0.02860
O1 0.45390 0.98490 0.24590 0.50000 0.06610
O2 0.71790 0.00000 0.13326 1.00000 0.06410
O3 0.37380 0.02360 0.08818 1.00000 0.07200
loop_
_cod_related_entry_id
_cod_related_entry_database
_cod_related_entry_code
1 AMCSD 0007210
