#------------------------------------------------------------------------------
#$Date: 2017-10-06 19:24:22 +0300 (Fri, 06 Oct 2017) $
#$Revision: 201816 $
#$URL: file:///home/coder/svn-repositories/cod/cif/9/01/44/9014483.cif $
#------------------------------------------------------------------------------
#
# This file is available in the Crystallography Open Database (COD),
# http://www.crystallography.net/. The original data for this entry
# were provided the American Mineralogist Crystal Structure Database,
# http://rruff.geo.arizona.edu/AMS/amcsd.php
#
# The file may be used within the scientific community so long as
# proper attribution is given to the journal article from which the
# data were obtained.
#
data_9014483
loop_
_publ_author_name
'Xu, H.'
'Su, Y.'
'Balmer, M. L.'
'Navrotsky, A.'
_publ_section_title
;
 A new series of oxygen-deficient perovskites in the NaTixNb1-xO3-.05x
 system: synthesis, crystal chemistry, and energetics
 Note: x = 0.00
;
_journal_name_full               'Chemistry of Materials'
_journal_page_first              1872
_journal_page_last               1878
_journal_paper_doi               10.1021/cm020963s
_journal_volume                  15
_journal_year                    2003
_chemical_compound_source        Synthetic
_chemical_formula_sum            'Na Nb O3'
_chemical_name_mineral           Lueshite
_space_group_IT_number           57
_symmetry_space_group_name_Hall  '-P 2a 2ab'
_symmetry_space_group_name_H-M   'P b m a'
_cell_angle_alpha                90
_cell_angle_beta                 90
_cell_angle_gamma                90
_cell_length_a                   5.5625
_cell_length_b                   15.5495
_cell_length_c                   5.5138
_cell_volume                     476.911
_database_code_amcsd             0018687
_exptl_crystal_density_diffrn    4.565
_cod_database_code               9014483
loop_
_space_group_symop_operation_xyz
x,y,z
1/2-x,1/2+y,z
1/2+x,1/2-y,-z
1/2+x,y,-z
1/2-x,-y,z
x,1/2-y,z
-x,1/2+y,-z
-x,-y,-z
loop_
_atom_site_label
_atom_site_fract_x
_atom_site_fract_y
_atom_site_fract_z
_atom_site_U_iso_or_equiv
Na1 0.75000 0.00000 0.23400 0.01490
Na2 0.74300 0.25000 0.24000 0.01490
Nb1 0.25830 0.12600 0.24620 0.00400
O1 0.25000 0.00000 0.31100 0.00690
O2 0.24020 0.25000 0.18170 0.00690
O3 0.06790 0.13970 0.54430 0.00690
O4 0.49190 0.11020 -0.01190 0.00690
loop_
_cod_related_entry_id
_cod_related_entry_database
_cod_related_entry_code
1 AMCSD 0018687
