#------------------------------------------------------------------------------
#$Date: 2017-10-06 19:24:22 +0300 (Fri, 06 Oct 2017) $
#$Revision: 201816 $
#$URL: file:///home/coder/svn-repositories/cod/cif/9/01/44/9014436.cif $
#------------------------------------------------------------------------------
#
# This file is available in the Crystallography Open Database (COD),
# http://www.crystallography.net/. The original data for this entry
# were provided the American Mineralogist Crystal Structure Database,
# http://rruff.geo.arizona.edu/AMS/amcsd.php
#
# The file may be used within the scientific community so long as
# proper attribution is given to the journal article from which the
# data were obtained.
#
data_9014436
loop_
_publ_author_name
'Dera, P.'
'Lazarz, J. D.'
'Prakapenka, V. B.'
'Barkley, M.'
'Downs, R. T.'
_publ_section_title
;
 New insights into the high-pressure polymorphism of SiO2 cristobalite
 Note: P = 7.3 GPa
;
_journal_name_full               'Physics and Chemistry of Minerals'
_journal_page_first              Online
_journal_page_last               first
_journal_volume                  38
_journal_year                    2011
_chemical_compound_source        'Ellora Caves, India'
_chemical_formula_sum            'O2 Si'
_chemical_name_mineral           Cristobalite
_space_group_IT_number           92
_symmetry_space_group_name_Hall  'P 4abw 2nw'
_symmetry_space_group_name_H-M   'P 41 21 2'
_cell_angle_alpha                90
_cell_angle_beta                 90
_cell_angle_gamma                90
_cell_length_a                   4.632
_cell_length_b                   4.632
_cell_length_c                   6.209
_cell_volume                     133.217
_database_code_amcsd             0018346
_exptl_crystal_density_diffrn    2.996
_cod_original_formula_sum        'Si O2'
_cod_database_code               9014436
loop_
_space_group_symop_operation_xyz
x,y,z
y,x,-z
1/2-y,1/2+x,1/4+z
1/2-x,1/2+y,1/4-z
-x,-y,1/2+z
-y,-x,1/2-z
1/2+y,1/2-x,3/4+z
1/2+x,1/2-y,3/4-z
loop_
_atom_site_label
_atom_site_fract_x
_atom_site_fract_y
_atom_site_fract_z
_atom_site_U_iso_or_equiv
Si 0.33530 0.33530 0.00000 0.00700
O 0.22760 0.17680 0.22280 0.00800
loop_
_cod_related_entry_id
_cod_related_entry_database
_cod_related_entry_code
1 AMCSD 0018346
