#------------------------------------------------------------------------------
#$Date: 2017-10-06 19:24:22 +0300 (Fri, 06 Oct 2017) $
#$Revision: 201816 $
#$URL: file:///home/coder/svn-repositories/cod/cif/9/01/43/9014320.cif $
#------------------------------------------------------------------------------
#
# This file is available in the Crystallography Open Database (COD),
# http://www.crystallography.net/. The original data for this entry
# were provided the American Mineralogist Crystal Structure Database,
# http://rruff.geo.arizona.edu/AMS/amcsd.php
#
# The file may be used within the scientific community so long as
# proper attribution is given to the journal article from which the
# data were obtained.
#
data_9014320
loop_
_publ_author_name
'Yamazaki, S.'
'Toraya, H.'
_publ_section_title
;
 Rietveld refinement of site-occupancy parameters of Mg2-xMnxSiO4
 using a new weight function in least-squares fitting
 Note: e = 1
;
_journal_name_full               'Journal of Applied Crystallography'
_journal_page_first              51
_journal_page_last               59
_journal_paper_doi               10.1107/S0021889898010206
_journal_volume                  32
_journal_year                    1999
_chemical_compound_source        Synthetic
_chemical_formula_sum            'Mn2 O4 Si'
_chemical_name_mineral           Tephroite
_space_group_IT_number           62
_symmetry_space_group_name_Hall  '-P 2ac 2n'
_symmetry_space_group_name_H-M   'P n m a'
_cell_angle_alpha                90
_cell_angle_beta                 90
_cell_angle_gamma                90
_cell_length_a                   10.60016
_cell_length_b                   6.25753
_cell_length_c                   4.90338
_cell_volume                     325.245
_database_code_amcsd             0019692
_exptl_crystal_density_diffrn    4.124
_cod_original_formula_sum        'Mn2 Si O4'
_cod_database_code               9014320
loop_
_space_group_symop_operation_xyz
x,y,z
x,1/2-y,z
-x,1/2+y,-z
1/2-x,1/2+y,1/2+z
1/2+x,1/2-y,1/2-z
1/2+x,y,1/2-z
1/2-x,-y,1/2+z
-x,-y,-z
loop_
_atom_site_label
_atom_site_fract_x
_atom_site_fract_y
_atom_site_fract_z
_atom_site_U_iso_or_equiv
MnM1 0.00000 0.00000 0.00000 0.01292
MnM2 0.27990 0.25000 0.98750 0.01178
Si 0.09680 0.25000 0.42780 0.00937
O1 0.09200 0.25000 0.75270 0.01292
O2 0.45700 0.25000 0.21310 0.01013
O3 0.16210 0.04690 0.28650 0.01507
loop_
_cod_related_entry_id
_cod_related_entry_database
_cod_related_entry_code
1 AMCSD 0019692
