#------------------------------------------------------------------------------
#$Date: 2017-10-06 19:24:22 +0300 (Fri, 06 Oct 2017) $
#$Revision: 201816 $
#$URL: file:///home/coder/svn-repositories/cod/cif/9/01/47/9014794.cif $
#------------------------------------------------------------------------------
#
# This file is available in the Crystallography Open Database (COD),
# http://www.crystallography.net/. The original data for this entry
# were provided the American Mineralogist Crystal Structure Database,
# http://rruff.geo.arizona.edu/AMS/amcsd.php
#
# The file may be used within the scientific community so long as
# proper attribution is given to the journal article from which the
# data were obtained.
#
data_9014794
loop_
_publ_author_name
'Mishchuk, D. O.'
'V'yunov, O. I.'
'Ovchar, O. V.'
'Belous, A. G.'
_publ_section_title
;
 Structural and dielectric properties of solid solutions of
 sodium niobate in lanthanum and neodymium niobates
 Note: La2/3-x Na3x Nb2O6 synthesized at 1350 deg C
 Note: x = .16
;
_journal_name_full               'Inorganic Materials'
_journal_page_first              1324
_journal_page_last               1330
_journal_paper_doi               10.1007/s10789-005-0019-y
_journal_volume                  40
_journal_year                    2004
_chemical_compound_source        Synthetic
_chemical_formula_sum            'La0.52 Na0.48 Nb2 O6'
_space_group_IT_number           47
_symmetry_space_group_name_Hall  '-P 2 2'
_symmetry_space_group_name_H-M   'P m m m'
_cell_angle_alpha                90
_cell_angle_beta                 90
_cell_angle_gamma                90
_cell_length_a                   3.921
_cell_length_b                   3.923
_cell_length_c                   7.8651
_cell_volume                     120.982
_database_code_amcsd             0018676
_exptl_crystal_density_diffrn    5.011
_cod_original_formula_sum        '(La.52 Na.48) Nb2 O6'
_cod_database_code               9014794
_amcsd_formula_title             La.5Na.5Nb2O6
loop_
_space_group_symop_operation_xyz
x,y,z
x,-y,z
-x,y,-z
-x,y,z
x,-y,-z
x,y,-z
-x,-y,z
-x,-y,-z
loop_
_atom_site_label
_atom_site_fract_x
_atom_site_fract_y
_atom_site_fract_z
_atom_site_occupancy
La 0.00000 0.00000 0.00000 0.52000
Na 0.00000 0.00000 0.00000 0.48000
Nb 0.50000 0.50000 0.25470 1.00000
O1 0.50000 0.50000 0.00000 1.00000
O2 0.50000 0.50000 0.50000 1.00000
O3 0.50000 0.00000 0.24700 1.00000
O4 0.00000 0.50000 0.24500 1.00000
loop_
_cod_related_entry_id
_cod_related_entry_database
_cod_related_entry_code
1 AMCSD 0018676
