#------------------------------------------------------------------------------
#$Date: 2017-10-06 19:24:22 +0300 (Fri, 06 Oct 2017) $
#$Revision: 201816 $
#$URL: file:///home/coder/svn-repositories/cod/cif/9/01/49/9014940.cif $
#------------------------------------------------------------------------------
#
# This file is available in the Crystallography Open Database (COD),
# http://www.crystallography.net/. The original data for this entry
# were provided the American Mineralogist Crystal Structure Database,
# http://rruff.geo.arizona.edu/AMS/amcsd.php
#
# The file may be used within the scientific community so long as
# proper attribution is given to the journal article from which the
# data were obtained.
#
data_9014940
loop_
_publ_author_name
'Plumier, R.'
_publ_section_title
;
 Magnetisme - Etude par diffraction des neutrons du compose spinelle MnV2O4
;
_journal_name_full
'Comptes Rendus Hebdomadaires des Seances de l'Academie des Sciences'
_journal_page_first              2244
_journal_page_last               2246
_journal_volume                  255
_journal_year                    1962
_chemical_compound_source        Synthetic
_chemical_formula_sum            'Mn O4 V2'
_chemical_name_mineral           Vuorelainenite
_space_group_IT_number           227
_symmetry_space_group_name_Hall  'F 4d 2 3 -1d'
_symmetry_space_group_name_H-M   'F d -3 m :1'
_cell_angle_alpha                90
_cell_angle_beta                 90
_cell_angle_gamma                90
_cell_length_a                   8.52
_cell_length_b                   8.52
_cell_length_c                   8.52
_cell_volume                     618.470
_database_code_amcsd             0019145
_exptl_crystal_density_diffrn    4.743
_cod_original_sg_symbol_H-M      'F d 3 m'
_cod_original_formula_sum        'Mn V2 O4'
_cod_database_code               9014940
loop_
_space_group_symop_operation_xyz
x,y,z
x,1/2+y,1/2+z
1/2+x,y,1/2+z
1/2+x,1/2+y,z
3/4+z,3/4-x,1/4+y
3/4+z,1/4-x,3/4+y
1/4+z,3/4-x,3/4+y
1/4+z,1/4-x,1/4+y
-y,1/2+z,1/2-x
-y,+z,-x
1/2-y,1/2+z,-x
1/2-y,+z,1/2-x
3/4+x,3/4-y,1/4+z
3/4+x,1/4-y,3/4+z
1/4+x,3/4-y,3/4+z
1/4+x,1/4-y,1/4+z
-z,1/2+x,1/2-y
-z,+x,-y
1/2-z,1/2+x,-y
1/2-z,+x,1/2-y
3/4+y,3/4-z,1/4+x
3/4+y,1/4-z,3/4+x
1/4+y,3/4-z,3/4+x
1/4+y,1/4-z,1/4+x
-x,1/2+y,1/2-z
-x,+y,-z
1/2-x,1/2+y,-z
1/2-x,+y,1/2-z
1/2+x,-z,1/2-y
1/2+x,1/2-z,-y
+x,-z,-y
+x,1/2-z,1/2-y
3/4-z,3/4+y,1/4+x
3/4-z,1/4+y,3/4+x
1/4-z,3/4+y,3/4+x
1/4-z,1/4+y,1/4+x
1/2+y,-x,1/2-z
1/2+y,1/2-x,-z
+y,-x,-z
+y,1/2-x,1/2-z
3/4-x,3/4+z,1/4+y
3/4-x,1/4+z,3/4+y
1/4-x,3/4+z,3/4+y
1/4-x,1/4+z,1/4+y
1/2+z,-y,1/2-x
1/2+z,1/2-y,-x
+z,-y,-x
+z,1/2-y,1/2-x
3/4-y,3/4+x,1/4+z
3/4-y,1/4+x,3/4+z
1/4-y,3/4+x,3/4+z
1/4-y,1/4+x,1/4+z
x,1/2+z,1/2+y
x,+z,+y
1/2+x,1/2+z,+y
1/2+x,+z,1/2+y
1/4-z,3/4-y,3/4-x
1/4-z,1/4-y,1/4-x
3/4-z,3/4-y,1/4-x
3/4-z,1/4-y,3/4-x
y,1/2+x,1/2+z
y,+x,+z
1/2+y,1/2+x,+z
1/2+y,+x,1/2+z
1/4-x,3/4-z,3/4-y
1/4-x,1/4-z,1/4-y
3/4-x,3/4-z,1/4-y
3/4-x,1/4-z,3/4-y
z,1/2+y,1/2+x
z,+y,+x
1/2+z,1/2+y,+x
1/2+z,+y,1/2+x
1/4-y,3/4-x,3/4-z
1/4-y,1/4-x,1/4-z
3/4-y,3/4-x,1/4-z
3/4-y,1/4-x,3/4-z
3/4+z,1/4+x,3/4-y
3/4+z,3/4+x,1/4-y
1/4+z,1/4+x,1/4-y
1/4+z,3/4+x,3/4-y
-y,1/2-z,1/2+x
-y,-z,+x
1/2-y,1/2-z,+x
1/2-y,-z,1/2+x
3/4+x,1/4+y,3/4-z
3/4+x,3/4+y,1/4-z
1/4+x,1/4+y,1/4-z
1/4+x,3/4+y,3/4-z
-z,1/2-x,1/2+y
-z,-x,+y
1/2-z,1/2-x,+y
1/2-z,-x,1/2+y
3/4+y,1/4+z,3/4-x
3/4+y,3/4+z,1/4-x
1/4+y,1/4+z,1/4-x
1/4+y,3/4+z,3/4-x
-x,1/2-y,1/2+z
-x,-y,+z
1/2-x,1/2-y,+z
1/2-x,-y,1/2+z
1/4-z,3/4+x,3/4+y
1/4-z,1/4+x,1/4+y
3/4-z,3/4+x,1/4+y
3/4-z,1/4+x,3/4+y
y,-z,-x
y,1/2-z,1/2-x
1/2+y,-z,1/2-x
1/2+y,1/2-z,-x
1/4-x,3/4+y,3/4+z
1/4-x,1/4+y,1/4+z
3/4-x,3/4+y,1/4+z
3/4-x,1/4+y,3/4+z
z,-x,-y
z,1/2-x,1/2-y
1/2+z,-x,1/2-y
1/2+z,1/2-x,-y
1/4-y,3/4+z,3/4+x
1/4-y,1/4+z,1/4+x
3/4-y,3/4+z,1/4+x
3/4-y,1/4+z,3/4+x
x,-y,-z
x,1/2-y,1/2-z
1/2+x,-y,1/2-z
1/2+x,1/2-y,-z
1/2-x,1/2+z,-y
1/2-x,+z,1/2-y
-x,1/2+z,1/2-y
-x,+z,-y
1/4+z,3/4-y,3/4+x
1/4+z,1/4-y,1/4+x
3/4+z,3/4-y,1/4+x
3/4+z,1/4-y,3/4+x
1/2-y,1/2+x,-z
1/2-y,+x,1/2-z
-y,1/2+x,1/2-z
-y,+x,-z
1/4+x,3/4-z,3/4+y
1/4+x,1/4-z,1/4+y
3/4+x,3/4-z,1/4+y
3/4+x,1/4-z,3/4+y
1/2-z,1/2+y,-x
1/2-z,+y,1/2-x
-z,1/2+y,1/2-x
-z,+y,-x
1/4+y,3/4-x,3/4+z
1/4+y,1/4-x,1/4+z
3/4+y,3/4-x,1/4+z
3/4+y,1/4-x,3/4+z
-x,-z,y
-x,1/2-z,1/2+y
1/2-x,-z,1/2+y
1/2-x,1/2-z,y
3/4+z,3/4+y,1/4-x
3/4+z,1/4+y,3/4-x
1/4+z,3/4+y,3/4-x
1/4+z,1/4+y,1/4-x
-y,-x,z
-y,1/2-x,1/2+z
1/2-y,-x,1/2+z
1/2-y,1/2-x,z
3/4+x,3/4+z,1/4-y
3/4+x,1/4+z,3/4-y
1/4+x,3/4+z,3/4-y
1/4+x,1/4+z,1/4-y
-z,-y,x
-z,1/2-y,1/2+x
1/2-z,-y,1/2+x
1/2-z,1/2-y,x
3/4+y,3/4+x,1/4-z
3/4+y,1/4+x,3/4-z
1/4+y,3/4+x,3/4-z
1/4+y,1/4+x,1/4-z
1/4-z,1/4-x,1/4-y
1/4-z,3/4-x,3/4-y
3/4-z,1/4-x,3/4-y
3/4-z,3/4-x,1/4-y
y,z,x
y,1/2+z,1/2+x
1/2+y,z,1/2+x
1/2+y,1/2+z,x
1/4-x,1/4-y,1/4-z
1/4-x,3/4-y,3/4-z
3/4-x,1/4-y,3/4-z
3/4-x,3/4-y,1/4-z
z,x,y
z,1/2+x,1/2+y
1/2+z,x,1/2+y
1/2+z,1/2+x,y
1/4-y,1/4-z,1/4-x
1/4-y,3/4-z,3/4-x
3/4-y,1/4-z,3/4-x
3/4-y,3/4-z,1/4-x
loop_
_atom_site_label
_atom_site_fract_x
_atom_site_fract_y
_atom_site_fract_z
Mn 0.00000 0.00000 0.00000
V 0.62500 0.62500 0.62500
O 0.38830 0.38830 0.38830
loop_
_cod_related_entry_id
_cod_related_entry_database
_cod_related_entry_code
1 AMCSD 0019145
