#------------------------------------------------------------------------------
#$Date: 2017-10-06 19:24:22 +0300 (Fri, 06 Oct 2017) $
#$Revision: 201816 $
#$URL: file:///home/coder/svn-repositories/cod/cif/9/01/58/9015847.cif $
#------------------------------------------------------------------------------
#
# This file is available in the Crystallography Open Database (COD),
# http://www.crystallography.net/. The original data for this entry
# were provided the American Mineralogist Crystal Structure Database,
# http://rruff.geo.arizona.edu/AMS/amcsd.php
#
# The file may be used within the scientific community so long as
# proper attribution is given to the journal article from which the
# data were obtained.
#
data_9015847
loop_
_publ_author_name
'Nestola, F.'
'Redhammer, G. J.'
'Pamato, M. G.'
'Secco, L.'
'Dal Negro, A.'
_publ_section_title
;
 High-pressure phase transformation in LiFeGe2O6 pyroxene
 Note: P = 2.54 GPa
;
_journal_name_full               'American Mineralogist'
_journal_page_first              616
_journal_page_last               621
_journal_paper_doi               10.2138/am.2009.3052
_journal_volume                  94
_journal_year                    2009
_chemical_formula_sum            'Fe Ge2 Li O6'
_space_group_IT_number           14
_symmetry_space_group_name_Hall  '-P 2ybc'
_symmetry_space_group_name_H-M   'P 1 21/c 1'
_cell_angle_alpha                90
_cell_angle_beta                 108.66
_cell_angle_gamma                90
_cell_length_a                   9.801
_cell_length_b                   8.769
_cell_length_c                   5.331
_cell_volume                     434.088
_database_code_amcsd             0004909
_exptl_crystal_density_diffrn    4.652
_cod_original_formula_sum        'Li Fe Ge2 O6'
_cod_database_code               9015847
_amcsd_formula_title             LiFeGe2O6
loop_
_space_group_symop_operation_xyz
x,y,z
x,1/2-y,1/2+z
-x,1/2+y,1/2-z
-x,-y,-z
loop_
_atom_site_label
_atom_site_fract_x
_atom_site_fract_y
_atom_site_fract_z
_atom_site_U_iso_or_equiv
LiM2 0.25700 0.01340 0.23090 0.01900
FeM1 0.25080 0.65080 0.21100 0.01800
GeA 0.04550 0.34220 0.28300 0.01900
O1A 0.86200 0.33600 0.18300 0.02200
O2A 0.11500 0.52000 0.28800 0.02800
O3A 0.11790 0.29400 0.62500 0.01400
GeB 0.55360 0.83920 0.22980 0.01800
O1B 0.36700 0.82910 0.10200 0.01700
O2B 0.62900 0.00400 0.38900 0.02400
O3B 0.61100 0.68700 0.45500 0.02500
loop_
_cod_related_entry_id
_cod_related_entry_database
_cod_related_entry_code
1 AMCSD 0004909
