#------------------------------------------------------------------------------
#$Date: 2017-10-06 19:24:22 +0300 (Fri, 06 Oct 2017) $
#$Revision: 201816 $
#$URL: file:///home/coder/svn-repositories/cod/cif/9/01/55/9015568.cif $
#------------------------------------------------------------------------------
#
# This file is available in the Crystallography Open Database (COD),
# http://www.crystallography.net/. The original data for this entry
# were provided the American Mineralogist Crystal Structure Database,
# http://rruff.geo.arizona.edu/AMS/amcsd.php
#
# The file may be used within the scientific community so long as
# proper attribution is given to the journal article from which the
# data were obtained.
#
data_9015568
loop_
_publ_author_name
'Calos, N. J.'
'Forrester, J. S.'
'Schaffer, G. B.'
_publ_section_title
;
 A crystallographic contribution to the mechanism of a mechanically
 induced solid state reaction
 Note: milling time = 30 min
;
_journal_name_full               'Journal of Solid State Chemistry'
_journal_page_first              273
_journal_page_last               280
_journal_paper_doi               10.1006/jssc.1996.0113
_journal_volume                  122
_journal_year                    1996
_chemical_compound_source        Synthetic
_chemical_formula_sum            'Cu O'
_chemical_name_mineral           Tenorite
_space_group_IT_number           15
_symmetry_space_group_name_Hall  '-C 2yc'
_symmetry_space_group_name_H-M   'C 1 2/c 1'
_cell_angle_alpha                90
_cell_angle_beta                 98.6440
_cell_angle_gamma                90
_cell_length_a                   4.6797
_cell_length_b                   3.4768
_cell_length_c                   5.1193
_cell_volume                     82.347
_database_code_amcsd             0018816
_exptl_crystal_density_diffrn    6.416
_cod_database_code               9015568
loop_
_space_group_symop_operation_xyz
x,y,z
1/2+x,1/2+y,z
x,-y,1/2+z
1/2+x,1/2-y,1/2+z
-x,y,1/2-z
1/2-x,1/2+y,1/2-z
-x,-y,-z
1/2-x,1/2-y,-z
loop_
_atom_site_aniso_label
_atom_site_aniso_U_11
_atom_site_aniso_U_22
_atom_site_aniso_U_33
_atom_site_aniso_U_12
_atom_site_aniso_U_13
_atom_site_aniso_U_23
Cu 0.01084 0.01592 0.01947 0.00081 0.01305 0.02139
O 0.16483 0.04409 0.11809 0.00000 -0.08185 0.00000
loop_
_atom_site_label
_atom_site_fract_x
_atom_site_fract_y
_atom_site_fract_z
Cu 0.25000 0.25000 0.00000
O 0.00000 0.46210 0.25000
loop_
_cod_related_entry_id
_cod_related_entry_database
_cod_related_entry_code
1 AMCSD 0018816
