#------------------------------------------------------------------------------
#$Date: 2017-10-06 19:24:22 +0300 (Fri, 06 Oct 2017) $
#$Revision: 201816 $
#$URL: file:///home/coder/svn-repositories/cod/cif/9/01/61/9016126.cif $
#------------------------------------------------------------------------------
#
# This file is available in the Crystallography Open Database (COD),
# http://www.crystallography.net/. The original data for this entry
# were provided the American Mineralogist Crystal Structure Database,
# http://rruff.geo.arizona.edu/AMS/amcsd.php
#
# The file may be used within the scientific community so long as
# proper attribution is given to the journal article from which the
# data were obtained.
#
data_9016126
loop_
_publ_author_name
'Mishchuk, D. O.'
'V'yunov, O. I.'
'Ovchar, O. V.'
'Belous, A. G.'
_publ_section_title
;
 Structural and dielectric properties of solid solutions of
 sodium niobate in lanthanum and neodymium niobates
 Note: La2/3-x Na3x Nb2O6 synthesized at 1350 deg C
 Note: x = .5, La.17Na1.5Nb2O6
;
_journal_name_full               'Inorganic Materials'
_journal_page_first              1324
_journal_page_last               1330
_journal_paper_doi               10.1007/s10789-005-0019-y
_journal_volume                  40
_journal_year                    2004
_chemical_compound_source        Synthetic
_chemical_formula_sum            'La0.17 Na1.5 Nb2 O6'
_chemical_name_mineral           Lueshite
_space_group_IT_number           57
_symmetry_space_group_name_Hall  '-P 2c 2b'
_symmetry_space_group_name_H-M   'P b c m'
_cell_angle_alpha                90
_cell_angle_beta                 90
_cell_angle_gamma                90
_cell_length_a                   5.5189
_cell_length_b                   5.5458
_cell_length_c                   15.6313
_cell_volume                     478.423
_database_code_amcsd             0018677
_exptl_crystal_density_diffrn    4.719
_cod_original_formula_sum        'La.17 Na1.5 Nb2 O6'
_cod_database_code               9016126
loop_
_space_group_symop_operation_xyz
x,y,z
x,1/2-y,1/2+z
-x,1/2+y,1/2-z
-x,1/2+y,z
x,1/2-y,-z
x,y,1/2-z
-x,-y,1/2+z
-x,-y,-z
loop_
_atom_site_label
_atom_site_fract_x
_atom_site_fract_y
_atom_site_fract_z
_atom_site_occupancy
La1 0.26800 0.25000 0.00000 0.17000
Na1 0.26800 0.25000 0.00000 0.50000
Na2 0.25000 0.22500 0.25000 1.00000
Nb 0.24900 0.74500 0.12460 1.00000
O1 0.74000 0.25000 0.00000 1.00000
O2 0.20000 0.81300 0.25000 1.00000
O3 0.47600 0.46100 0.14900 1.00000
O4 0.01500 0.00900 0.11800 1.00000
loop_
_cod_related_entry_id
_cod_related_entry_database
_cod_related_entry_code
1 AMCSD 0018677
