#------------------------------------------------------------------------------
#$Date: 2017-10-06 19:24:22 +0300 (Fri, 06 Oct 2017) $
#$Revision: 201816 $
#$URL: file:///home/coder/svn-repositories/cod/cif/9/01/60/9016072.cif $
#------------------------------------------------------------------------------
#
# This file is available in the Crystallography Open Database (COD),
# http://www.crystallography.net/. The original data for this entry
# were provided the American Mineralogist Crystal Structure Database,
# http://rruff.geo.arizona.edu/AMS/amcsd.php
#
# The file may be used within the scientific community so long as
# proper attribution is given to the journal article from which the
# data were obtained.
#
data_9016072
loop_
_publ_author_name
'Ardit, M.'
'Dondi, M.'
'Cruciani, G.'
_publ_section_title
;
 Structural stability, cation ordering, and local
 relaxation along the AlNbO4-Al0.5Cr0.5NbO4 join
 Note: Sample label: N06
;
_journal_name_full               'American Mineralogist'
_journal_page_first              910
_journal_page_last               917
_journal_paper_doi               10.2138/am.2012.3977
_journal_volume                  97
_journal_year                    2012
_chemical_compound_source        Synthetic
_chemical_formula_sum            'Al0.94 Cr0.06 Nb O4'
_space_group_IT_number           12
_symmetry_space_group_name_Hall  '-C 2y'
_symmetry_space_group_name_H-M   'C 1 2/m 1'
_cell_angle_alpha                90
_cell_angle_beta                 107.64
_cell_angle_gamma                90
_cell_length_a                   12.1620
_cell_length_b                   3.7454
_cell_length_c                   6.4910
_cell_volume                     281.772
_database_code_amcsd             0019052
_exptl_crystal_density_diffrn    4.370
_cod_original_formula_sum        'Al.94 Nb O4 Cr.06'
_cod_database_code               9016072
_amcsd_formula_title             AlNbO4
loop_
_space_group_symop_operation_xyz
x,y,z
1/2+x,1/2+y,z
x,-y,z
1/2+x,1/2-y,z
-x,y,-z
1/2-x,1/2+y,-z
-x,-y,-z
1/2-x,1/2-y,-z
loop_
_atom_site_label
_atom_site_fract_x
_atom_site_fract_y
_atom_site_fract_z
_atom_site_occupancy
_atom_site_U_iso_or_equiv
Al1 0.19556 0.00000 0.30333 0.80000 0.01570
Nb1 0.19556 0.00000 0.30333 0.20000 0.01570
Al2 0.10273 0.00000 0.73216 0.14000 0.00800
Nb2 0.10273 0.00000 0.73216 0.80000 0.00800
O1 0.13840 0.00000 0.01520 1.00000 0.01600
O2 0.05750 0.00000 0.36780 1.00000 0.01350
O3 0.36210 0.00000 0.29560 1.00000 0.01620
O4 0.26240 0.00000 0.64560 1.00000 0.01160
Cr2 0.10273 0.00000 0.73216 0.06000 0.00800
loop_
_cod_related_entry_id
_cod_related_entry_database
_cod_related_entry_code
1 AMCSD 0019052
