#------------------------------------------------------------------------------
#$Date: 2017-10-06 19:24:22 +0300 (Fri, 06 Oct 2017) $
#$Revision: 201816 $
#$URL: file:///home/coder/svn-repositories/cod/cif/9/01/62/9016270.cif $
#------------------------------------------------------------------------------
#
# This file is available in the Crystallography Open Database (COD),
# http://www.crystallography.net/. The original data for this entry
# were provided the American Mineralogist Crystal Structure Database,
# http://rruff.geo.arizona.edu/AMS/amcsd.php
#
# The file may be used within the scientific community so long as
# proper attribution is given to the journal article from which the
# data were obtained.
#
data_9016270
loop_
_publ_author_name
'Redhammer, G. J.'
'Nestola, F.'
'Miletich, R.'
_publ_section_title
;
 Synthetic LiAlGe2O6: The first pyroxene with P2_1/n symmetry
 Note: Sample #LAF_L_tr
;
_journal_name_full               'American Mineralogist'
_journal_page_first              1213
_journal_page_last               1218
_journal_paper_doi               10.2138/am.2012.4099
_journal_volume                  97
_journal_year                    2012
_chemical_compound_source        Synthetic
_chemical_formula_sum            'Al Ge2 Li O6'
_space_group_IT_number           14
_symmetry_space_group_name_Hall  '-P 2yn'
_symmetry_space_group_name_H-M   'P 1 21/n 1'
_cell_angle_alpha                90
_cell_angle_beta                 110.640
_cell_angle_gamma                90
_cell_length_a                   9.8976
_cell_length_b                   8.3985
_cell_length_c                   5.4020
_cell_volume                     420.219
_database_code_amcsd             0019066
_exptl_crystal_density_diffrn    4.349
_cod_original_formula_sum        'Li Al Ge2 O6'
_cod_database_code               9016270
_amcsd_formula_title             LiAlGe2O6
loop_
_space_group_symop_operation_xyz
x,y,z
1/2+x,1/2-y,1/2+z
1/2-x,1/2+y,1/2-z
-x,-y,-z
loop_
_atom_site_aniso_label
_atom_site_aniso_U_11
_atom_site_aniso_U_22
_atom_site_aniso_U_33
_atom_site_aniso_U_12
_atom_site_aniso_U_13
_atom_site_aniso_U_23
Li1 0.01700 0.01800 0.01700 0.00220 0.00250 0.00250
Al3 0.00330 0.00300 0.00470 0.00010 0.00160 -0.00001
Ge1 0.00544 0.00537 0.00820 -0.00142 0.00320 -0.00149
Ge2 0.00509 0.00531 0.00609 0.00069 0.00225 0.00002
O1 0.00480 0.00730 0.00800 -0.00030 0.00180 0.00060
O2 0.00820 0.01190 0.00820 -0.00250 0.00280 0.00210
O3 0.01140 0.00710 0.01160 -0.00490 0.00450 -0.00090
O4 0.00900 0.01000 0.00610 0.00290 0.00180 -0.00140
O5 0.00510 0.00650 0.00700 0.00060 0.00180 -0.00010
O6 0.00900 0.00580 0.01710 0.00250 0.00650 0.00010
loop_
_atom_site_label
_atom_site_fract_x
_atom_site_fract_y
_atom_site_fract_z
_atom_site_U_iso_or_equiv
Li1 0.50560 0.28360 0.80040 0.01840
Al3 0.49529 0.08628 0.24665 0.00362
Ge1 0.29277 0.58271 0.72804 0.00613
Ge2 0.28073 0.38659 0.22894 0.00542
O1 0.10458 0.57280 0.64670 0.00680
O2 0.36069 0.50710 0.05820 0.00950
O3 0.38780 0.75760 0.79900 0.00990
O4 0.35780 0.43520 0.56590 0.00860
O5 0.09151 0.40220 0.12770 0.00630
O6 0.32670 0.18980 0.21510 0.01010
loop_
_cod_related_entry_id
_cod_related_entry_database
_cod_related_entry_code
1 AMCSD 0019066
