#------------------------------------------------------------------------------
#$Date: 2017-10-06 19:24:22 +0300 (Fri, 06 Oct 2017) $
#$Revision: 201816 $
#$URL: file:///home/coder/svn-repositories/cod/cif/9/01/62/9016212.cif $
#------------------------------------------------------------------------------
#
# This file is available in the Crystallography Open Database (COD),
# http://www.crystallography.net/. The original data for this entry
# were provided the American Mineralogist Crystal Structure Database,
# http://rruff.geo.arizona.edu/AMS/amcsd.php
#
# The file may be used within the scientific community so long as
# proper attribution is given to the journal article from which the
# data were obtained.
#
data_9016212
loop_
_publ_author_name
'Hazen, R. M.'
_publ_section_title
;
 Effects of temperature and pressure on the crystal structure of ferromagnesian
 olivine
 T = 23 C, P = 1 atm , Evacuated silica capillary
;
_journal_name_full               'American Mineralogist'
_journal_page_first              286
_journal_page_last               295
_journal_volume                  62
_journal_year                    1977
_chemical_compound_source        'Franklin, New Jersey, USA'
_chemical_formula_sum            'Fe1.1 Mg0.75 Mn0.15 O4 Si'
_chemical_name_mineral           Fayalite
_space_group_IT_number           62
_symmetry_space_group_name_Hall  '-P 2c 2ab'
_symmetry_space_group_name_H-M   'P b n m'
_cell_angle_alpha                90
_cell_angle_beta                 90
_cell_angle_gamma                90
_cell_length_a                   4.798
_cell_length_b                   10.390
_cell_length_c                   6.055
_cell_volume                     301.849
_database_code_amcsd             0000570
_exptl_crystal_density_diffrn    3.961
_cod_original_formula_sum        '(Fe1.1 Mg.75 Mn.15) Si O4'
_cod_database_code               9016212
loop_
_space_group_symop_operation_xyz
x,y,z
x,y,1/2-z
-x,-y,1/2+z
1/2+x,1/2-y,1/2+z
1/2-x,1/2+y,1/2-z
1/2-x,1/2+y,z
1/2+x,1/2-y,-z
-x,-y,-z
loop_
_atom_site_aniso_label
_atom_site_aniso_U_11
_atom_site_aniso_U_22
_atom_site_aniso_U_33
_atom_site_aniso_U_12
_atom_site_aniso_U_13
_atom_site_aniso_U_23
Fe1 0.00362 0.00820 0.00520 0.00025 -0.00103 0.00159
Mg1 0.00362 0.00820 0.00520 0.00025 -0.00103 0.00159
Mn1 0.00362 0.00820 0.00520 0.00025 -0.00103 0.00159
Fe2 0.00443 0.00383 0.00446 0.00025 0.00000 0.00000
Mg2 0.00443 0.00383 0.00446 0.00025 0.00000 0.00000
Mn2 0.00443 0.00383 0.00446 0.00025 0.00000 0.00000
Si 0.00222 0.00547 0.00520 0.00000 0.00000 0.00000
O1 0.00303 0.00930 0.00594 0.00025 0.00000 0.00000
O2 0.00793 0.00383 0.00724 0.00025 0.00000 0.00000
O3 0.00595 0.00820 0.00669 0.00152 0.00029 0.00159
loop_
_atom_site_label
_atom_site_fract_x
_atom_site_fract_y
_atom_site_fract_z
_atom_site_occupancy
Fe1 0.00000 0.00000 0.00000 0.56200
Mg1 0.00000 0.00000 0.00000 0.36100
Mn1 0.00000 0.00000 0.00000 0.07700
Fe2 0.98670 0.27920 0.25000 0.53800
Mg2 0.98670 0.27920 0.25000 0.38900
Mn2 0.98670 0.27920 0.25000 0.07300
Si 0.42870 0.09570 0.25000 1.00000
O1 0.76610 0.09180 0.25000 1.00000
O2 0.21270 0.45140 0.25000 1.00000
O3 0.28440 0.16330 0.03570 1.00000
loop_
_cod_related_entry_id
_cod_related_entry_database
_cod_related_entry_code
1 AMCSD 0000570
