#------------------------------------------------------------------------------
#$Date: 2017-10-06 19:24:22 +0300 (Fri, 06 Oct 2017) $
#$Revision: 201816 $
#$URL: file:///home/coder/svn-repositories/cod/cif/9/01/61/9016153.cif $
#------------------------------------------------------------------------------
#
# This file is available in the Crystallography Open Database (COD),
# http://www.crystallography.net/. The original data for this entry
# were provided the American Mineralogist Crystal Structure Database,
# http://rruff.geo.arizona.edu/AMS/amcsd.php
#
# The file may be used within the scientific community so long as
# proper attribution is given to the journal article from which the
# data were obtained.
#
data_9016153
loop_
_publ_author_name
'Periotto, B.'
'Balic-Zunic T'
'Nestola, F.'
'Katerinopoulou, A.'
'Angel, R. J.'
_publ_section_title
;
 Re-investigation of the crystal structure of enstatite under high-pressure conditions
 Note: P = 2.69(5) GPa
;
_journal_name_full               'American Mineralogist'
_journal_page_first              1741
_journal_page_last               1748
_journal_paper_doi               10.2138/am.2012.4157
_journal_volume                  97
_journal_year                    2012
_chemical_compound_source        Synthetic
_chemical_formula_sum            'Mg O3 Si'
_chemical_name_mineral           Enstatite
_space_group_IT_number           61
_symmetry_space_group_name_Hall  '-P 2ac 2ab'
_symmetry_space_group_name_H-M   'P b c a'
_cell_angle_alpha                90
_cell_angle_beta                 90
_cell_angle_gamma                90
_cell_length_a                   18.105
_cell_length_b                   8.734
_cell_length_c                   5.1376
_cell_volume                     812.404
_database_code_amcsd             0019518
_exptl_crystal_density_diffrn    3.283
_cod_original_formula_sum        'Mg Si O3'
_cod_database_code               9016153
loop_
_space_group_symop_operation_xyz
x,y,z
x,1/2-y,1/2+z
-x,1/2+y,1/2-z
1/2-x,1/2+y,z
1/2+x,1/2-y,-z
1/2+x,y,1/2-z
1/2-x,-y,1/2+z
-x,-y,-z
loop_
_atom_site_label
_atom_site_fract_x
_atom_site_fract_y
_atom_site_fract_z
_atom_site_U_iso_or_equiv
Mg2 0.37710 0.48430 0.35310 0.00890
Mg1 0.37600 0.65500 0.86080 0.00600
SiTA 0.27120 0.34280 0.04480 0.00490
SiTB 0.47305 0.33760 0.80180 0.00470
O1A 0.18280 0.33970 0.02880 0.00540
O2A 0.31060 0.50490 0.03760 0.00730
O3A 0.30330 0.22350 0.82520 0.00570
O1B 0.56240 0.33930 0.80360 0.00600
O2B 0.43260 0.48310 0.68580 0.00750
O3B 0.44710 0.19290 0.61030 0.00410
loop_
_cod_related_entry_id
_cod_related_entry_database
_cod_related_entry_code
1 AMCSD 0019518
