#------------------------------------------------------------------------------
#$Date: 2017-10-06 19:24:22 +0300 (Fri, 06 Oct 2017) $
#$Revision: 201816 $
#$URL: file:///home/coder/svn-repositories/cod/cif/9/01/65/9016515.cif $
#------------------------------------------------------------------------------
#
# This file is available in the Crystallography Open Database (COD),
# http://www.crystallography.net/. The original data for this entry
# were provided the American Mineralogist Crystal Structure Database,
# http://rruff.geo.arizona.edu/AMS/amcsd.php
#
# The file may be used within the scientific community so long as
# proper attribution is given to the journal article from which the
# data were obtained.
#
data_9016515
loop_
_publ_author_name
'Yamazaki, S.'
'Toraya, H.'
_publ_section_title
;
 Rietveld refinement of site-occupancy parameters of Mg2-xMnxSiO4
 using a new weight function in least-squares fitting
 Note: e = eo
;
_journal_name_full               'Journal of Applied Crystallography'
_journal_page_first              51
_journal_page_last               59
_journal_paper_doi               10.1107/S0021889898010206
_journal_volume                  32
_journal_year                    1999
_chemical_compound_source        Synthetic
_chemical_formula_sum            'Mg Mn O4 Si'
_chemical_name_mineral           Tephroite
_space_group_IT_number           62
_symmetry_space_group_name_Hall  '-P 2ac 2n'
_symmetry_space_group_name_H-M   'P n m a'
_cell_angle_alpha                90
_cell_angle_beta                 90
_cell_angle_gamma                90
_cell_length_a                   10.45100
_cell_length_b                   6.12446
_cell_length_c                   4.80757
_cell_volume                     307.717
_database_code_amcsd             0019689
_exptl_crystal_density_diffrn    3.698
_cod_original_formula_sum        '(Mg Mn) Si O4'
_cod_database_code               9016515
loop_
_space_group_symop_operation_xyz
x,y,z
x,1/2-y,z
-x,1/2+y,-z
1/2-x,1/2+y,1/2+z
1/2+x,1/2-y,1/2-z
1/2+x,y,1/2-z
1/2-x,-y,1/2+z
-x,-y,-z
loop_
_atom_site_label
_atom_site_fract_x
_atom_site_fract_y
_atom_site_fract_z
_atom_site_occupancy
_atom_site_U_iso_or_equiv
MgM1 0.00000 0.00000 0.00000 0.72100 0.00975
MnM1 0.00000 0.00000 0.00000 0.27900 0.00975
MgM2 0.27940 0.25000 0.98780 0.27900 0.00975
MnM2 0.27940 0.25000 0.98780 0.72100 0.00975
Si 0.09260 0.25000 0.42410 1.00000 0.00773
O1 0.08880 0.25000 0.75770 1.00000 0.01089
O2 0.44980 0.25000 0.22340 1.00000 0.00811
O3 0.16080 0.03710 0.27930 1.00000 0.00887
loop_
_cod_related_entry_id
_cod_related_entry_database
_cod_related_entry_code
1 AMCSD 0019689
