#------------------------------------------------------------------------------
#$Date: 2016-02-18 17:37:37 +0200 (Thu, 18 Feb 2016) $
#$Revision: 176729 $
#$URL: svn://www.crystallography.net/cod/cif/1/00/40/1004015.cif $
#------------------------------------------------------------------------------
#
# This file is available in the Crystallography Open Database (COD),
# http://www.crystallography.net/
#
# All data on this site have been placed in the public domain by the
# contributors.
#
data_1004015
loop_
_publ_author_name
'Cario, L.'
'Gal, Z. A.'
'Braun, T. P.'
'DiSalvo, F. J.'
'Blaschkowski, B.'
'Meyer, H. J.'
_publ_section_title
;
Ln3T2N6 (Ln=La, Ce, Pr; T=Ta, Nb), a New Family of Ternary Nitrides Isotypic 
to a High Tc Cuprate Superconductor
;
_journal_name_full               'Journal of Solid State Chemistry'
_journal_page_first              90
_journal_page_last               95
_journal_paper_doi               10.1006/jssc.2001.9359
_journal_volume                  162
_journal_year                    2001
_chemical_formula_moiety         ?
_chemical_formula_sum            'La3 N6 Ta2'
_chemical_formula_weight         862.69
_chemical_melting_point          ?
_chemical_name_common            'Lanthanum three tantalum two hexanitride'
_chemical_name_systematic        ?
_space_group_IT_number           139
_symmetry_cell_setting           tetragonal
_symmetry_space_group_name_Hall  '-I 4 2'
_symmetry_space_group_name_H-M   'I 4/m m m'
_atom_sites_solution_hydrogens   geom
_atom_sites_solution_primary     direct
_atom_sites_solution_secondary   difmap
_audit_creation_method           SHELXL-97
_cell_angle_alpha                90.00
_cell_angle_beta                 90.00
_cell_angle_gamma                90.00
_cell_formula_units_Z            2
_cell_length_a                   4.0674(2)
_cell_length_b                   4.0674(2)
_cell_length_c                   20.4506(10)
_cell_measurement_reflns_used    487
_cell_measurement_temperature    293(2)
_cell_measurement_theta_max      27.23
_cell_measurement_theta_min      1.99
_cell_volume                     338.33(3)
_computing_cell_refinement       'Brucker Smart 5.050'
_computing_data_collection       'Brucker Smart 5.050'
_computing_data_reduction        'SHELXL-97 (Sheldrick, 1997)'
_computing_molecular_graphics    ?
_computing_publication_material  ?
_computing_structure_refinement  'SHELXL-97 (Sheldrick, 1997)'
_computing_structure_solution    ?
_diffrn_ambient_temperature      293(2)
_diffrn_detector_area_resol_mean ?
_diffrn_measured_fraction_theta_full 0.993
_diffrn_measured_fraction_theta_max 0.993
_diffrn_measurement_device_type  'Bruker Smart CCD'
_diffrn_measurement_method       W-scan
_diffrn_radiation_monochromator  graphite
_diffrn_radiation_source         'fine-focus sealed tube'
_diffrn_radiation_type           MoK\a
_diffrn_radiation_wavelength     0.71073
_diffrn_reflns_av_R_equivalents  0.0643
_diffrn_reflns_av_sigmaI/netI    0.0340
_diffrn_reflns_limit_h_max       5
_diffrn_reflns_limit_h_min       -5
_diffrn_reflns_limit_k_max       5
_diffrn_reflns_limit_k_min       -5
_diffrn_reflns_limit_l_max       22
_diffrn_reflns_limit_l_min       -26
_diffrn_reflns_number            1052
_diffrn_reflns_theta_full        27.23
_diffrn_reflns_theta_max         27.23
_diffrn_reflns_theta_min         1.99
_diffrn_standards_decay_%        ?
_diffrn_standards_interval_count ?
_diffrn_standards_interval_time  ?
_diffrn_standards_number         0
_exptl_absorpt_coefficient_mu    50.671
_exptl_absorpt_correction_T_max  0.23204
_exptl_absorpt_correction_T_min  0.10809
_exptl_absorpt_correction_type   analytical
_exptl_absorpt_process_details   'Gaussian face-indexed absorption correction'
_exptl_crystal_colour            black
_exptl_crystal_density_diffrn    8.468
_exptl_crystal_density_meas      ?
_exptl_crystal_density_method    'not measured'
_exptl_crystal_description       'truncated parallelepiped'
_exptl_crystal_F_000             718
_exptl_crystal_size_max          0.064
_exptl_crystal_size_mid          0.046
_exptl_crystal_size_min          0.036
_refine_diff_density_max         1.540
_refine_diff_density_min         -2.860
_refine_diff_density_rms         0.520
_refine_ls_extinction_coef       0.0051(6)
_refine_ls_extinction_expression Fc^*^=kFc[1+0.001xFc^2^\l^3^/sin(2\q)]^-1/4^
_refine_ls_extinction_method     SHELXL
_refine_ls_goodness_of_fit_ref   1.385
_refine_ls_hydrogen_treatment    mixed
_refine_ls_matrix_type           full
_refine_ls_number_parameters     14
_refine_ls_number_reflns         151
_refine_ls_number_restraints     0
_refine_ls_restrained_S_all      1.385
_refine_ls_R_factor_all          0.0395
_refine_ls_R_factor_gt           0.0364
_refine_ls_shift/su_max          0.000
_refine_ls_shift/su_mean         0.000
_refine_ls_structure_factor_coef Fsqd
_refine_ls_weighting_details
'calc w=1/[\s^2^(Fo^2^)+(0.0065P)^2^+28.8718P] where P=(Fo^2^+2Fc^2^)/3'
_refine_ls_weighting_scheme      calc
_refine_ls_wR_factor_gt          0.0640
_refine_ls_wR_factor_ref         0.0653
_reflns_number_gt                141
_reflns_number_total             151
_reflns_threshold_expression     >2sigma(I)
_cod_depositor_comments
;
The following automatic conversions were performed:
'_symmetry_cell_setting' value 'Tetragonal' changed to 'tetragonal'
according to '/home/saulius/struct/CIF-dictionaries/cif_core.dic'
dictionary named 'cif_core.dic' version 2.4.1 from
2010-06-29.

'_exptl_absorpt_correction_type' value 'Analytical' changed
to 'analytical' according to
'/home/saulius/struct/CIF-dictionaries/cif_core.dic' dictionary named
'cif_core.dic' version 2.4.1 from 2010-06-29.

Automatic conversion script
Id: cif_fix_enum 1527 2010-12-29 10:47:43Z saulius 

Fixing incorrect cif tag. _atom_site_type_symbol symbol was changed to 
_atom_site_Wyckoff_symbol. For the correct values, the
original paper at
http://www.sciencedirect.com/science/article/pii/S0022459601993594# was
consulted.

Antanas Vaitkus
2013-03-08

Correcting syntax of Wyckoff letters. However, the Wyckoff letter for
the N2 atom might be incorrect (as judged from the N2 coordinates); bu
the original paper specifies 4e as the Wyckoff position for N2...

Saulius Gra\<zulis
2013-03-29
;
_cod_original_sg_symbol_H-M      I4/mmm
_cod_database_code               1004015
loop_
_symmetry_equiv_pos_as_xyz
'x, y, z'
'-x, -y, z'
'-y, x, z'
'y, -x, z'
'-x, y, -z'
'x, -y, -z'
'y, x, -z'
'-y, -x, -z'
'x+1/2, y+1/2, z+1/2'
'-x+1/2, -y+1/2, z+1/2'
'-y+1/2, x+1/2, z+1/2'
'y+1/2, -x+1/2, z+1/2'
'-x+1/2, y+1/2, -z+1/2'
'x+1/2, -y+1/2, -z+1/2'
'y+1/2, x+1/2, -z+1/2'
'-y+1/2, -x+1/2, -z+1/2'
'-x, -y, -z'
'x, y, -z'
'y, -x, -z'
'-y, x, -z'
'x, -y, z'
'-x, y, z'
'-y, -x, z'
'y, x, z'
'-x+1/2, -y+1/2, -z+1/2'
'x+1/2, y+1/2, -z+1/2'
'y+1/2, -x+1/2, -z+1/2'
'-y+1/2, x+1/2, -z+1/2'
'x+1/2, -y+1/2, z+1/2'
'-x+1/2, y+1/2, z+1/2'
'-y+1/2, -x+1/2, z+1/2'
'y+1/2, x+1/2, z+1/2'
loop_
_atom_site_label
_atom_site_Wyckoff_symbol
_atom_site_fract_x
_atom_site_fract_y
_atom_site_fract_z
_atom_site_U_iso_or_equiv
_atom_site_adp_type
_atom_site_occupancy
_atom_site_symmetry_multiplicity
_atom_site_calc_flag
_atom_site_refinement_flags
_atom_site_disorder_assembly
_atom_site_disorder_group
Ta1 e 0.0000 0.0000 0.39941(6) 0.0041(5) Uani 1 4 d S . .
La2 a 0.0000 0.0000 0.0000 0.0061(6) Uani 1 2 d S . .
La3 e 0.0000 0.0000 0.81779(9) 0.0074(6) Uani 1 4 d S . .
N1 e 0.0000 0.0000 0.3034(14) 0.016(7) Uiso 1 4 d S . .
N2 e 0.0000 0.5000 0.4132(9) 0.015(4) Uiso 1 4 d S . .
loop_
_atom_site_aniso_label
_atom_site_aniso_U_11
_atom_site_aniso_U_22
_atom_site_aniso_U_33
_atom_site_aniso_U_23
_atom_site_aniso_U_13
_atom_site_aniso_U_12
Ta1 0.0025(6) 0.0025(6) 0.0073(8) 0.000 0.000 0.000
La2 0.0065(8) 0.0065(8) 0.0053(12) 0.000 0.000 0.000
La3 0.0081(8) 0.0081(8) 0.0059(9) 0.000 0.000 0.000
loop_
_atom_type_symbol
_atom_type_description
_atom_type_scat_dispersion_real
_atom_type_scat_dispersion_imag
_atom_type_scat_source
N N 0.0061 0.0033 'International Tables Vol C Tables 4.2.6.8 and 6.1.1.4'
La La -0.2871 2.4523 'International Tables Vol C Tables 4.2.6.8 and 6.1.1.4'
Ta Ta -0.7052 6.5227 'International Tables Vol C Tables 4.2.6.8 and 6.1.1.4'
