#------------------------------------------------------------------------------
#$Date: 2015-01-27 21:58:39 +0200 (Tue, 27 Jan 2015) $
#$Revision: 130149 $
#$URL: svn://www.crystallography.net/cod/cif/1/00/90/1009050.cif $
#------------------------------------------------------------------------------
#
# This file is available in the Crystallography Open Database (COD),
# http://www.crystallography.net/
#
# All data on this site have been placed in the public domain by the
# contributors.
#
data_1009050
loop_
_publ_author_name
'Nardin, M'
'Lorthioir, G'
'Barberon, M M'
'Madar, R'
'Fruchart, E'
'Fruchart, R'
_publ_section_title
;
Etude de cinq nouveaux nitrures M Cr3 N de type perovskite
;
_journal_coden_ASTM              CHDCAQ
_journal_name_full
;
Comptes Rendus Hebdomadaires des Seances de l'Academie des Sciences,
Serie C, Sciences Chimiques (1966-)
;
_journal_page_first              2168
_journal_page_last               2171
_journal_volume                  274
_journal_year                    1972
_chemical_formula_structural     'Mn3 Sn N'
_chemical_formula_sum            'Mn3 N Sn'
_chemical_name_systematic        'Manganese tin nitride (3/1/1)'
_space_group_IT_number           221
_symmetry_cell_setting           cubic
_symmetry_Int_Tables_number      221
_symmetry_space_group_name_Hall  '-P 4 2 3'
_symmetry_space_group_name_H-M   'P m -3 m'
_cell_angle_alpha                90
_cell_angle_beta                 90
_cell_angle_gamma                90
_cell_formula_units_Z            1
_cell_length_a                   4.06
_cell_length_b                   4.06
_cell_length_c                   4.06
_cell_volume                     66.9
_cod_database_code               1009050
loop_
_symmetry_equiv_pos_as_xyz
x,y,z
y,z,x
z,x,y
x,z,y
y,x,z
z,y,x
x,-y,-z
y,-z,-x
z,-x,-y
x,-z,-y
y,-x,-z
z,-y,-x
-x,y,-z
-y,z,-x
-z,x,-y
-x,z,-y
-y,x,-z
-z,y,-x
-x,-y,z
-y,-z,x
-z,-x,y
-x,-z,y
-y,-x,z
-z,-y,x
-x,-y,-z
-y,-z,-x
-z,-x,-y
-x,-z,-y
-y,-x,-z
-z,-y,-x
-x,y,z
-y,z,x
-z,x,y
-x,z,y
-y,x,z
-z,y,x
x,-y,z
y,-z,x
z,-x,y
x,-z,y
y,-x,z
z,-y,x
x,y,-z
y,z,-x
z,x,-y
x,z,-y
y,x,-z
z,y,-x
loop_
_atom_site_label
_atom_site_type_symbol
_atom_site_symmetry_multiplicity
_atom_site_Wyckoff_symbol
_atom_site_fract_x
_atom_site_fract_y
_atom_site_fract_z
_atom_site_occupancy
_atom_site_attached_hydrogens
_atom_site_calc_flag
Sn1 Sn0 1 a 0. 0. 0. 1. 0 d
Mn2 Mn0 3 c 0. 0.5 0.5 1. 0 d
N1 N0 1 b 0.5 0.5 0.5 1. 0 d
loop_
_atom_type_symbol
_atom_type_oxidation_number
Sn0 0.000
Mn0 0.000
N0 0.000
