#------------------------------------------------------------------------------
#$Date: 2016-02-13 21:28:24 +0200 (Sat, 13 Feb 2016) $
#$Revision: 176429 $
#$URL: svn://www.crystallography.net/cod/cif/1/52/07/1520798.cif $
#------------------------------------------------------------------------------
#
# This file is available in the Crystallography Open Database (COD),
# http://www.crystallography.net/
#
# All data on this site have been placed in the public domain by the
# contributors.
#
data_1520798
loop_
_publ_author_name
'Ayres de Campos, J.'
'Ferreira, L.P.'
'Mendes, P.J.'
'Bacmann, M.'
'Gil, J.M.'
'Ferreira, I.C.'
'Godinho, M.'
'Soubeyroux, J.L.'
'Ayres de Campos, N.'
'Fruchart, D.'
_publ_section_title
;
 Study of R Fe9.5 Mo2.5 H (R = Y, Dy, Ho, Er) and R Fe9.5 Mo2.5 N (R= Y,
 Dy) compounds by Mossbauer spectroscopy, magnetisation and neutron powder
 diffraction
;
_journal_name_full               'Journal of Magnetism and Magnetic Materials'
_journal_page_first              293
_journal_page_last               303
_journal_volume                  213
_journal_year                    2000
_chemical_formula_sum            'Fe9.6 Mo2.4 N0.91 Y'
_chemical_name_systematic        'Y Fe9.6 Mo2.4 N0.91'
_space_group_IT_number           139
_symmetry_space_group_name_Hall  '-I 4 2'
_symmetry_space_group_name_H-M   'I 4/m m m'
_cell_angle_alpha                90
_cell_angle_beta                 90
_cell_angle_gamma                90
_cell_formula_units_Z            2
_cell_length_a                   8.679
_cell_length_b                   8.679
_cell_length_c                   4.814
_cell_volume                     362.615
_citation_journal_id_ASTM        JMMMDC
_cod_data_source_file            AyresdeCampos_JMMMDC_2000_1563.cif
_cod_data_source_block           Fe9.6Mo2.4N0.91Y1
_cod_original_cell_volume        362.6147
_cod_original_formula_sum        'Fe9.6 Mo2.4 N0.91 Y1'
_cod_database_code               1520798
loop_
_symmetry_equiv_pos_as_xyz
x,y,z
-y,x,z
-x,-y,z
y,-x,z
x,-y,-z
y,x,-z
-x,y,-z
-y,-x,-z
-x,-y,-z
y,-x,-z
x,y,-z
-y,x,-z
-x,y,z
-y,-x,z
x,-y,z
y,x,z
x+1/2,y+1/2,z+1/2
-y+1/2,x+1/2,z+1/2
-x+1/2,-y+1/2,z+1/2
y+1/2,-x+1/2,z+1/2
x+1/2,-y+1/2,-z+1/2
y+1/2,x+1/2,-z+1/2
-x+1/2,y+1/2,-z+1/2
-y+1/2,-x+1/2,-z+1/2
-x+1/2,-y+1/2,-z+1/2
y+1/2,-x+1/2,-z+1/2
x+1/2,y+1/2,-z+1/2
-y+1/2,x+1/2,-z+1/2
-x+1/2,y+1/2,z+1/2
-y+1/2,-x+1/2,z+1/2
x+1/2,-y+1/2,z+1/2
y+1/2,x+1/2,z+1/2
loop_
_atom_site_label
_atom_site_type_symbol
_atom_site_fract_x
_atom_site_fract_y
_atom_site_fract_z
_atom_site_occupancy
_atom_site_U_iso_or_equiv
Fe2 Fe 0.3617 0 0 0.4 0.0
Fe1 Fe 0.25 0.25 0.25 1 0.0
N1 N 0 0 0.5 0.91 0.0
Mo1 Mo 0.3617 0 0 0.6 0.0
Y1 Y 0 0 0 1 0.0
Fe3 Fe 0.2788 0.5 0 1 0.0
