#------------------------------------------------------------------------------
#$Date: 2016-02-13 21:28:24 +0200 (Sat, 13 Feb 2016) $
#$Revision: 176429 $
#$URL: svn://www.crystallography.net/cod/cif/1/52/28/1522819.cif $
#------------------------------------------------------------------------------
#
# This file is available in the Crystallography Open Database (COD),
# http://www.crystallography.net/
#
# All data on this site have been placed in the public domain by the
# contributors.
#
data_1522819
loop_
_publ_author_name
'Sachsze, W.'
'Juza, R.'
_publ_section_title
;
 Ueber Mischkristalle der Zusammensetzung: (Li, Co)3 N, (Li, Ni)3 N und
 (Li, Cu)3 N
;
_journal_name_full
'Zeitschrift fuer Anorganische und Allgemeine Chemie'
_journal_page_first              278
_journal_page_last               290
_journal_volume                  260
_journal_year                    1949
_chemical_formula_sum            'Li2.57 N Ni0.43'
_chemical_name_systematic        '(Li2.57 Ni0.43) N'
_space_group_IT_number           191
_symmetry_space_group_name_Hall  '-P 6 2'
_symmetry_space_group_name_H-M   'P 6/m m m'
_cell_angle_alpha                90
_cell_angle_beta                 90
_cell_angle_gamma                120
_cell_formula_units_Z            1
_cell_length_a                   3.718
_cell_length_b                   3.718
_cell_length_c                   3.62
_cell_volume                     43.337
_citation_journal_id_ASTM        ZAACAB
_cod_data_source_file            Sachsze_ZAACAB_1949_981.cif
_cod_data_source_block           Li2.57N1Ni0.43
_cod_original_cell_volume        43.33691
_cod_original_formula_sum        'Li2.57 N1 Ni0.43'
_cod_database_code               1522819
loop_
_symmetry_equiv_pos_as_xyz
x,y,z
x-y,x,z
-y,x-y,z
-x,-y,z
-x+y,-x,z
y,-x+y,z
-y,-x,-z
x-y,-y,-z
x,x-y,-z
y,x,-z
-x+y,y,-z
-x,-x+y,-z
-x,-y,-z
-x+y,-x,-z
y,-x+y,-z
x,y,-z
x-y,x,-z
-y,x-y,-z
y,x,z
-x+y,y,z
-x,-x+y,z
-y,-x,z
x-y,-y,z
x,x-y,z
loop_
_atom_site_label
_atom_site_type_symbol
_atom_site_fract_x
_atom_site_fract_y
_atom_site_fract_z
_atom_site_occupancy
_atom_site_U_iso_or_equiv
Ni1 Ni 0 0 0.5 0.143 0.0
Li1 Li 0 0 0.5 0.857 0.0
Li2 Li 0.3333 0.6667 0 0.857 0.0
Ni2 Ni 0.3333 0.6667 0 0.143 0.0
N1 N 0 0 0 1 0.0
