#------------------------------------------------------------------------------
#$Date: 2015-07-10 15:10:42 +0300 (Fri, 10 Jul 2015) $
#$Revision: 142250 $
#$URL: svn://www.crystallography.net/cod/cif/1/52/20/1522031.cif $
#------------------------------------------------------------------------------
#
# This file is available in the Crystallography Open Database (COD),
# http://www.crystallography.net/
#
# All data on this site have been placed in the public domain by the
# contributors.
#
data_1522031
loop_
_publ_author_name
'Teresiak, A.'
'Kubis, M.'
'Mattern, N.'
'Wolf, M.'
'Gruner, J.W.'
'Mueller, K.H.'
_publ_section_title
;
 Influence of nitrogenation on structure development and magnetic
 properties of mechanically alloyed and annealed Sm - Fe powders
;
_journal_name_full               'Journal of Alloys Compd.'
_journal_page_first              212
_journal_page_last               220
_journal_volume                  292
_journal_year                    1999
_chemical_formula_sum            'Fe16.959 N2.962 Sm1.903'
_chemical_name_systematic        'Sm1.903 Fe16.959 N2.962'
_space_group_IT_number           166
_symmetry_space_group_name_Hall  '-R 3 2"'
_symmetry_space_group_name_H-M   'R -3 m :H'
_cell_angle_alpha                90
_cell_angle_beta                 90
_cell_angle_gamma                120
_cell_formula_units_Z            3
_cell_length_a                   8.728
_cell_length_b                   8.728
_cell_length_c                   12.674
_cell_volume                     836.130
_citation_journal_id_ASTM        JALCEU
_cod_data_source_file            Teresiak_JALCEU_1999_36.cif
_cod_data_source_block           Fe16.959N2.962Sm1.903
_cod_original_cell_volume        836.1299
_cod_database_code               1522031
loop_
_symmetry_equiv_pos_as_xyz
x,y,z
-y,x-y,z
-x+y,-x,z
y,x,-z
-x,-x+y,-z
x-y,-y,-z
-x,-y,-z
y,-x+y,-z
x-y,x,-z
-y,-x,z
x,x-y,z
-x+y,y,z
x+2/3,y+1/3,z+1/3
-y+2/3,x-y+1/3,z+1/3
-x+y+2/3,-x+1/3,z+1/3
y+2/3,x+1/3,-z+1/3
-x+2/3,-x+y+1/3,-z+1/3
x-y+2/3,-y+1/3,-z+1/3
-x+2/3,-y+1/3,-z+1/3
y+2/3,-x+y+1/3,-z+1/3
x-y+2/3,x+1/3,-z+1/3
-y+2/3,-x+1/3,z+1/3
x+2/3,x-y+1/3,z+1/3
-x+y+2/3,y+1/3,z+1/3
x+1/3,y+2/3,z+2/3
-y+1/3,x-y+2/3,z+2/3
-x+y+1/3,-x+2/3,z+2/3
y+1/3,x+2/3,-z+2/3
-x+1/3,-x+y+2/3,-z+2/3
x-y+1/3,-y+2/3,-z+2/3
-x+1/3,-y+2/3,-z+2/3
y+1/3,-x+y+2/3,-z+2/3
x-y+1/3,x+2/3,-z+2/3
-y+1/3,-x+2/3,z+2/3
x+1/3,x-y+2/3,z+2/3
-x+y+1/3,y+2/3,z+2/3
loop_
_atom_site_label
_atom_site_type_symbol
_atom_site_fract_x
_atom_site_fract_y
_atom_site_fract_z
_atom_site_occupancy
_atom_site_U_iso_or_equiv
Fe2 Fe 0 0 0.243 0.246 0.0
Fe6 Fe 0.5 0 0.5 1 0.0
Fe4 Fe 0.285 0 0 1 0.0
Fe1 Fe 0 0 0.09 0.487 0.0
N1 N 0.5 0 0 0.988 0.0
Sm2 Sm 0 0 0 0.512 0.0
Sm1 Sm 0 0 0.333 0.6955 0.0
Fe5 Fe 0.501 0.499 0.164 1 0.0
Fe3 Fe 0 0 0.423 0.246 0.0
