#------------------------------------------------------------------------------
#$Date: 2016-02-13 21:28:24 +0200 (Sat, 13 Feb 2016) $
#$Revision: 176429 $
#$URL: svn://www.crystallography.net/cod/cif/1/52/32/1523227.cif $
#------------------------------------------------------------------------------
#
# This file is available in the Crystallography Open Database (COD),
# http://www.crystallography.net/
#
# All data on this site have been placed in the public domain by the
# contributors.
#
data_1523227
loop_
_publ_author_name
'Beckmann, O.'
'Boller, H.'
'Nowotny, H.'
'Benesovsky, F.'
_publ_section_title
;
 Einige Komplexcarbide und -nitride in den Systemen Ti - (Zn, Cd, Hg) -
 (C, N) und Cr - Ga - N
;
_journal_name_full               'Monatshefte fuer Chemie (-108,1977)'
_journal_page_first              1465
_journal_page_last               1470
_journal_volume                  100
_journal_year                    1969
_chemical_formula_sum            'Hg0.8 N Ti3.2'
_chemical_name_systematic        '(Hg0.8 Ti0.2) Ti3 N'
_space_group_IT_number           221
_symmetry_space_group_name_Hall  '-P 4 2 3'
_symmetry_space_group_name_H-M   'P m -3 m'
_cell_angle_alpha                90
_cell_angle_beta                 90
_cell_angle_gamma                90
_cell_formula_units_Z            1
_cell_length_a                   4.161
_cell_length_b                   4.161
_cell_length_c                   4.161
_cell_volume                     72.043
_citation_journal_id_ASTM        MOCHAP
_cod_data_source_file            Beckmann_MOCHAP_1969_642.cif
_cod_data_source_block           Hg0.8N1Ti3.2
_cod_original_cell_volume        72.04321
_cod_original_formula_sum        'Hg0.8 N1 Ti3.2'
_cod_database_code               1523227
loop_
_symmetry_equiv_pos_as_xyz
x,y,z
-y,x,z
-x,-y,z
y,-x,z
x,-y,-z
y,x,-z
-x,y,-z
-y,-x,-z
z,x,y
-x,z,y
-z,-x,y
x,-z,y
z,-x,-y
x,z,-y
-z,x,-y
-x,-z,-y
y,z,x
y,-z,-x
z,y,-x
-y,z,-x
-z,-y,-x
-y,-z,x
z,-y,x
-z,y,x
-x,-y,-z
y,-x,-z
x,y,-z
-y,x,-z
-x,y,z
-y,-x,z
x,-y,z
y,x,z
-z,-x,-y
x,-z,-y
z,x,-y
-x,z,-y
-z,x,y
-x,-z,y
z,-x,y
x,z,y
-y,-z,-x
-y,z,x
-z,-y,x
y,-z,x
z,y,x
y,z,-x
-z,y,-x
z,-y,-x
loop_
_atom_site_label
_atom_site_type_symbol
_atom_site_fract_x
_atom_site_fract_y
_atom_site_fract_z
_atom_site_occupancy
_atom_site_U_iso_or_equiv
N1 N 0 0 0 1 0.0
Ti2 Ti 0 0.5 0.5 1 0.0
Ti1 Ti 0.5 0.5 0.5 0.2 0.0
Hg1 Hg 0.5 0.5 0.5 0.8 0.0
