#------------------------------------------------------------------------------
#$Date: 2016-02-13 21:28:24 +0200 (Sat, 13 Feb 2016) $
#$Revision: 176429 $
#$URL: svn://www.crystallography.net/cod/cif/1/52/37/1523788.cif $
#------------------------------------------------------------------------------
#
# This file is available in the Crystallography Open Database (COD),
# http://www.crystallography.net/
#
# All data on this site have been placed in the public domain by the
# contributors.
#
data_1523788
loop_
_publ_author_name
'Haschke, H.'
'Nowotny, H.'
'Benesovsky, F.'
_publ_section_title
;
 Neodym Perowskitcarbide und -nitride
;
_journal_name_full               'Monatshefte fuer Chemie (-108,1977)'
_journal_page_first              2157
_journal_page_last               2163
_journal_volume                  98
_journal_year                    1967
_chemical_formula_sum            'Ga N Nd3'
_chemical_name_systematic        'Ga Nd3 N'
_space_group_IT_number           221
_symmetry_space_group_name_Hall  '-P 4 2 3'
_symmetry_space_group_name_H-M   'P m -3 m'
_cell_angle_alpha                90
_cell_angle_beta                 90
_cell_angle_gamma                90
_cell_formula_units_Z            1
_cell_length_a                   5.063
_cell_length_b                   5.063
_cell_length_c                   5.063
_cell_volume                     129.785
_citation_journal_id_ASTM        MOCHAP
_cod_data_source_file            Haschke_MOCHAP_1967_227.cif
_cod_data_source_block           Ga1N1Nd3
_cod_original_cell_volume        129.7848
_cod_original_formula_sum        'Ga1 N1 Nd3'
_cod_database_code               1523788
loop_
_symmetry_equiv_pos_as_xyz
x,y,z
-y,x,z
-x,-y,z
y,-x,z
x,-y,-z
y,x,-z
-x,y,-z
-y,-x,-z
z,x,y
-x,z,y
-z,-x,y
x,-z,y
z,-x,-y
x,z,-y
-z,x,-y
-x,-z,-y
y,z,x
y,-z,-x
z,y,-x
-y,z,-x
-z,-y,-x
-y,-z,x
z,-y,x
-z,y,x
-x,-y,-z
y,-x,-z
x,y,-z
-y,x,-z
-x,y,z
-y,-x,z
x,-y,z
y,x,z
-z,-x,-y
x,-z,-y
z,x,-y
-x,z,-y
-z,x,y
-x,-z,y
z,-x,y
x,z,y
-y,-z,-x
-y,z,x
-z,-y,x
y,-z,x
z,y,x
y,z,-x
-z,y,-x
z,-y,-x
loop_
_atom_site_label
_atom_site_type_symbol
_atom_site_fract_x
_atom_site_fract_y
_atom_site_fract_z
_atom_site_occupancy
_atom_site_U_iso_or_equiv
Nd1 Nd 0 0.5 0.5 1 0.0
Ga1 Ga 0.5 0.5 0.5 1 0.0
N1 N 0 0 0 1 0.0
