#------------------------------------------------------------------------------
#$Date: 2018-09-27 07:13:35 +0300 (Thu, 27 Sep 2018) $
#$Revision: 211196 $
#$URL: file:///home/coder/svn-repositories/cod/cif/1/52/57/1525735.cif $
#------------------------------------------------------------------------------
#
# This file is available in the Crystallography Open Database (COD),
# http://www.crystallography.net/
#
# All data on this site have been placed in the public domain by the
# contributors.
#
data_1525735
loop_
_publ_author_name
'Leineweber, A.'
'Lueken, H.'
'Huening, F.'
'Jacobs, H.'
'Kockelmann, W.'
_publ_section_title
;
 Nitrogen ordering and ferromagnetic properties of epsilon-(Fe3 N1+x)
 (0.10 < x < 0.39) and epsilon-(Fe3 (N0.80 C0.20)1.38)
;
_journal_name_full               'Journal of Alloys Compd.'
_journal_page_first              21
_journal_page_last               38
_journal_volume                  316
_journal_year                    2001
_chemical_formula_sum            'Fe3 N1.226'
_space_group_IT_number           182
_symmetry_space_group_name_Hall  'P 6c 2c'
_symmetry_space_group_name_H-M   'P 63 2 2'
_cell_angle_alpha                90
_cell_angle_beta                 90
_cell_angle_gamma                120
_cell_formula_units_Z            2
_cell_length_a                   4.7542
_cell_length_b                   4.7542
_cell_length_c                   4.4197
_cell_volume                     86.512
_citation_journal_id_ASTM        JALCEU
_cod_data_source_file            Leineweber_JALCEU_2001_1181.cif
_cod_data_source_block           Fe3N1.226
_cod_original_cell_volume        86.51239
_cod_database_code               1525735
loop_
_symmetry_equiv_pos_as_xyz
x,y,z
x-y,x,z+1/2
-y,x-y,z
-x,-y,z+1/2
-x+y,-x,z
y,-x+y,z+1/2
-y,-x,-z+1/2
x-y,-y,-z
x,x-y,-z+1/2
y,x,-z
-x+y,y,-z+1/2
-x,-x+y,-z
loop_
_atom_site_label
_atom_site_type_symbol
_atom_site_fract_x
_atom_site_fract_y
_atom_site_fract_z
_atom_site_occupancy
_atom_site_U_iso_or_equiv
N2 N 0.3333 0.6667 0.25 0.892 0.0
N1 N 0 0 0.25 0.334 0.0
Fe1 Fe 0.3333 0 0 1 0.0
