#------------------------------------------------------------------------------
#$Date: 2018-09-27 07:13:35 +0300 (Thu, 27 Sep 2018) $
#$Revision: 211196 $
#$URL: file:///home/coder/svn-repositories/cod/cif/1/52/72/1527235.cif $
#------------------------------------------------------------------------------
#
# This file is available in the Crystallography Open Database (COD),
# http://www.crystallography.net/
#
# All data on this site have been placed in the public domain by the
# contributors.
#
data_1527235
loop_
_publ_author_name
'Chern, M.Y.'
'DiSalvo, F.J.'
'Vennos, D.A.'
_publ_section_title
;
 Synthesis, structure, and properies of anti-perovskite nitrides Ca3 M N,
 M= P, As, Sb, Bi, Ge, Sn, and Pb
;
_journal_name_full               'Journal of Solid State Chemistry'
_journal_page_first              415
_journal_page_last               425
_journal_volume                  96
_journal_year                    1992
_chemical_formula_sum            'Ca3 N Sn'
_space_group_IT_number           221
_symmetry_space_group_name_Hall  '-P 4 2 3'
_symmetry_space_group_name_H-M   'P m -3 m'
_cell_angle_alpha                90
_cell_angle_beta                 90
_cell_angle_gamma                90
_cell_formula_units_Z            1
_cell_length_a                   4.946
_cell_length_b                   4.946
_cell_length_c                   4.946
_cell_volume                     120.994
_citation_journal_id_ASTM        JSSCBI
_cod_data_source_file            Chern_JSSCBI_1992_251.cif
_cod_data_source_block           Ca3N1Sn1
_cod_original_cell_volume        120.9936
_cod_original_formula_sum        'Ca3 N1 Sn1'
_cod_database_code               1527235
loop_
_symmetry_equiv_pos_as_xyz
x,y,z
-y,x,z
-x,-y,z
y,-x,z
x,-y,-z
y,x,-z
-x,y,-z
-y,-x,-z
z,x,y
-x,z,y
-z,-x,y
x,-z,y
z,-x,-y
x,z,-y
-z,x,-y
-x,-z,-y
y,z,x
y,-z,-x
z,y,-x
-y,z,-x
-z,-y,-x
-y,-z,x
z,-y,x
-z,y,x
-x,-y,-z
y,-x,-z
x,y,-z
-y,x,-z
-x,y,z
-y,-x,z
x,-y,z
y,x,z
-z,-x,-y
x,-z,-y
z,x,-y
-x,z,-y
-z,x,y
-x,-z,y
z,-x,y
x,z,y
-y,-z,-x
-y,z,x
-z,-y,x
y,-z,x
z,y,x
y,z,-x
-z,y,-x
z,-y,-x
loop_
_atom_site_label
_atom_site_type_symbol
_atom_site_fract_x
_atom_site_fract_y
_atom_site_fract_z
_atom_site_occupancy
_atom_site_U_iso_or_equiv
N1 N 0 0 0 1 0.0
Sn1 Sn 0.5 0.5 0.5 1 0.0
Ca1 Ca 0 0.5 0.5 1 0.0
