#------------------------------------------------------------------------------
#$Date: 2018-09-27 07:13:35 +0300 (Thu, 27 Sep 2018) $
#$Revision: 211196 $
#$URL: file:///home/coder/svn-repositories/cod/cif/1/53/14/1531482.cif $
#------------------------------------------------------------------------------
#
# This file is available in the Crystallography Open Database (COD),
# http://www.crystallography.net/
#
# All data on this site have been placed in the public domain by the
# contributors.
#
data_1531482
loop_
_publ_author_name
'Guo, Y.-Q.'
'Roy, S.'
'Ali, N.'
_publ_section_title
;
 Effect of nitrogen incorporation in La2/3 Ca1/3 Mn O3
;
_journal_name_full               'Journal of Physics: Condensed Matter'
_journal_page_first              181
_journal_page_last               191
_journal_volume                  14
_journal_year                    2002
_chemical_formula_sum            N
_space_group_IT_number           62
_symmetry_space_group_name_Hall  '-P 2c 2ab'
_symmetry_space_group_name_H-M   'P b n m'
_cell_angle_alpha                90
_cell_angle_beta                 90
_cell_angle_gamma                90
_cell_formula_units_Z            4
_cell_length_a                   3.541
_cell_length_b                   4.749
_cell_length_c                   7.873
_cell_volume                     132.394
_citation_journal_id_ASTM        JCOMEL
_cod_data_source_file            Guo_JCOMEL_2002_602.cif
_cod_data_source_block           N1
_cod_original_sg_symbol_Hall     '-P 2ac 2n (z,x,y)'
_cod_original_formula_sum        N1
_cod_database_code               1531482
loop_
_symmetry_equiv_pos_as_xyz
x,y,z
x+1/2,-y+1/2,-z
-x+1/2,y+1/2,-z+1/2
-x,-y,z+1/2
-x,-y,-z
-x-1/2,y-1/2,z
x-1/2,-y-1/2,z-1/2
x,y,-z-1/2
loop_
_atom_site_label
_atom_site_type_symbol
_atom_site_fract_x
_atom_site_fract_y
_atom_site_fract_z
_atom_site_occupancy
_atom_site_U_iso_or_equiv
N1 N 0.6348 0.0205 0.25 1 0.0
