#------------------------------------------------------------------------------
#$Date: 2018-09-27 07:13:35 +0300 (Thu, 27 Sep 2018) $
#$Revision: 211196 $
#$URL: file:///home/coder/svn-repositories/cod/cif/1/53/20/1532001.cif $
#------------------------------------------------------------------------------
#
# This file is available in the Crystallography Open Database (COD),
# http://www.crystallography.net/
#
# All data on this site have been placed in the public domain by the
# contributors.
#
data_1532001
loop_
_publ_author_name
'Prior, T.J.'
'Battle, P.D.'
_publ_section_title
;
 Facile synthesis of interstitial metal nitrides with the filled
 beta-manganese structure
;
_journal_name_full               'Journal of Solid State Chemistry'
_journal_page_first              138
_journal_page_last               147
_journal_volume                  172
_journal_year                    2003
_chemical_formula_sum            'Co2 Mo3 N'
_space_group_IT_number           213
_symmetry_space_group_name_Hall  'P 4bd 2ab 3'
_symmetry_space_group_name_H-M   'P 41 3 2'
_cell_angle_alpha                90
_cell_angle_beta                 90
_cell_angle_gamma                90
_cell_formula_units_Z            4
_cell_length_a                   6.6653
_cell_length_b                   6.6653
_cell_length_c                   6.6653
_cell_volume                     296.114
_citation_journal_id_ASTM        JSSCBI
_cod_data_source_file            Prior_JSSCBI_2003_1518.cif
_cod_data_source_block           Co2Mo3N1
_cod_original_cell_volume        296.1141
_cod_original_formula_sum        'Co2 Mo3 N1'
_cod_database_code               1532001
loop_
_symmetry_equiv_pos_as_xyz
x,y,z
-y+1/4,x+3/4,z+1/4
-x+1/2,-y,z+1/2
y+1/4,-x+1/4,z+3/4
x+1/2,-y+1/2,-z
y+3/4,x+1/4,-z+1/4
-x,y+1/2,-z+1/2
-y+3/4,-x+3/4,-z+3/4
z,x,y
-x+1/4,z+3/4,y+1/4
-z+1/2,-x,y+1/2
x+1/4,-z+1/4,y+3/4
z+1/2,-x+1/2,-y
x+3/4,z+1/4,-y+1/4
-z,x+1/2,-y+1/2
-x+3/4,-z+3/4,-y+3/4
y,z,x
y+1/2,-z+1/2,-x
z+3/4,y+1/4,-x+1/4
-y,z+1/2,-x+1/2
-z+3/4,-y+3/4,-x+3/4
-y+1/2,-z,x+1/2
z+1/4,-y+1/4,x+3/4
-z+1/4,y+3/4,x+1/4
loop_
_atom_site_label
_atom_site_type_symbol
_atom_site_fract_x
_atom_site_fract_y
_atom_site_fract_z
_atom_site_occupancy
_atom_site_U_iso_or_equiv
Co1 Co 0.0671 0.0671 0.0671 1 0.0
Mo1 Mo 0.125 0.2024 0.4524 1 0.0
N1 N 0.375 0.375 0.375 1 0.0
