#------------------------------------------------------------------------------
#$Date: 2016-02-13 21:28:24 +0200 (Sat, 13 Feb 2016) $
#$Revision: 176429 $
#$URL: svn://www.crystallography.net/cod/cif/1/53/34/1533479.cif $
#------------------------------------------------------------------------------
#
# This file is available in the Crystallography Open Database (COD),
# http://www.crystallography.net/
#
# All data on this site have been placed in the public domain by the
# contributors.
#
data_1533479
loop_
_publ_author_name
'Aoki, M.'
'Yamane, H.'
'Shimada, M.'
'Kajiwara, T.'
_publ_section_title
;
 Single crystal growth of manganese gallium nitride using Mn - Ga - Na
 melt
;
_journal_name_full               'Journal of Alloys Compd.'
_journal_page_first              280
_journal_page_last               282
_journal_volume                  364
_journal_year                    2004
_chemical_formula_sum            'Ga0.93 Mn3.07 N'
_chemical_name_systematic        'Mn3 (Mn0.07 Ga0.93) N'
_space_group_IT_number           221
_symmetry_space_group_name_Hall  '-P 4 2 3'
_symmetry_space_group_name_H-M   'P m -3 m'
_cell_angle_alpha                90
_cell_angle_beta                 90
_cell_angle_gamma                90
_cell_formula_units_Z            1
_cell_length_a                   3.8886
_cell_length_b                   3.8886
_cell_length_c                   3.8886
_cell_volume                     58.800
_citation_journal_id_ASTM        JALCEU
_cod_data_source_file            Aoki_JALCEU_2004_1349.cif
_cod_data_source_block           Ga0.93Mn3.07N1
_cod_original_cell_volume        58.80034
_cod_original_formula_sum        'Ga0.93 Mn3.07 N1'
_cod_database_code               1533479
loop_
_symmetry_equiv_pos_as_xyz
x,y,z
-y,x,z
-x,-y,z
y,-x,z
x,-y,-z
y,x,-z
-x,y,-z
-y,-x,-z
z,x,y
-x,z,y
-z,-x,y
x,-z,y
z,-x,-y
x,z,-y
-z,x,-y
-x,-z,-y
y,z,x
y,-z,-x
z,y,-x
-y,z,-x
-z,-y,-x
-y,-z,x
z,-y,x
-z,y,x
-x,-y,-z
y,-x,-z
x,y,-z
-y,x,-z
-x,y,z
-y,-x,z
x,-y,z
y,x,z
-z,-x,-y
x,-z,-y
z,x,-y
-x,z,-y
-z,x,y
-x,-z,y
z,-x,y
x,z,y
-y,-z,-x
-y,z,x
-z,-y,x
y,-z,x
z,y,x
y,z,-x
-z,y,-x
z,-y,-x
loop_
_atom_site_label
_atom_site_type_symbol
_atom_site_fract_x
_atom_site_fract_y
_atom_site_fract_z
_atom_site_occupancy
_atom_site_U_iso_or_equiv
Mn2 Mn 0 0 0 0.07 0.0
Mn1 Mn 0 0.5 0.5 1 0.0
N1 N 0.5 0.5 0.5 1 0.0
Ga1 Ga 0 0 0 0.93 0.0
