#------------------------------------------------------------------------------
#$Date: 2018-09-27 07:13:35 +0300 (Thu, 27 Sep 2018) $
#$Revision: 211196 $
#$URL: file:///home/coder/svn-repositories/cod/cif/1/53/42/1534295.cif $
#------------------------------------------------------------------------------
#
# This file is available in the Crystallography Open Database (COD),
# http://www.crystallography.net/
#
# All data on this site have been placed in the public domain by the
# contributors.
#
data_1534295
loop_
_publ_author_name
'Boller, H.'
_publ_section_title
;
 Komplexcarbide und -nitride mit aufgefuelltem U3 Si - Typ
;
_journal_name_full               'Monatshefte fuer Chemie (-108,1977)'
_journal_page_first              2444
_journal_page_last               2449
_journal_volume                  99
_journal_year                    1968
_chemical_formula_sum            'Fe3 Ge N0.51'
_space_group_IT_number           140
_symmetry_space_group_name_Hall  '-I 4 2c'
_symmetry_space_group_name_H-M   'I 4/m c m'
_cell_angle_alpha                90
_cell_angle_beta                 90
_cell_angle_gamma                90
_cell_formula_units_Z            4
_cell_length_a                   5.231
_cell_length_b                   5.231
_cell_length_c                   7.658
_cell_volume                     209.549
_citation_journal_id_ASTM        MOCHAP
_cod_data_source_file            Boller_MOCHAP_1968_970.cif
_cod_data_source_block           Fe3Ge1N0.51
_cod_original_cell_volume        209.5486
_cod_original_formula_sum        'Fe3 Ge1 N0.51'
_cod_database_code               1534295
loop_
_symmetry_equiv_pos_as_xyz
x,y,z
-y,x,z
-x,-y,z
y,-x,z
x,-y,-z+1/2
y,x,-z+1/2
-x,y,-z+1/2
-y,-x,-z+1/2
-x,-y,-z
y,-x,-z
x,y,-z
-y,x,-z
-x,y,z-1/2
-y,-x,z-1/2
x,-y,z-1/2
y,x,z-1/2
x+1/2,y+1/2,z+1/2
-y+1/2,x+1/2,z+1/2
-x+1/2,-y+1/2,z+1/2
y+1/2,-x+1/2,z+1/2
x+1/2,-y+1/2,-z+1
y+1/2,x+1/2,-z+1
-x+1/2,y+1/2,-z+1
-y+1/2,-x+1/2,-z+1
-x+1/2,-y+1/2,-z+1/2
y+1/2,-x+1/2,-z+1/2
x+1/2,y+1/2,-z+1/2
-y+1/2,x+1/2,-z+1/2
-x+1/2,y+1/2,z
-y+1/2,-x+1/2,z
x+1/2,-y+1/2,z
y+1/2,x+1/2,z
loop_
_atom_site_label
_atom_site_type_symbol
_atom_site_fract_x
_atom_site_fract_y
_atom_site_fract_z
_atom_site_occupancy
_atom_site_U_iso_or_equiv
N1 N 0 0 0 0.5 0.0
Fe1 Fe 0.23 0.73 0 1 0.0
Fe2 Fe 0 0 0.25 1 0.0
Ge1 Ge 0 0.5 0.25 1 0.0
