#------------------------------------------------------------------------------
#$Date: 2018-09-27 07:13:35 +0300 (Thu, 27 Sep 2018) $
#$Revision: 211196 $
#$URL: file:///home/coder/svn-repositories/cod/cif/1/53/88/1538842.cif $
#------------------------------------------------------------------------------
#
# This file is available in the Crystallography Open Database (COD),
# http://www.crystallography.net/
#
# All data on this site have been placed in the public domain by the
# contributors.
#
data_1538842
loop_
_publ_author_name
'Mekata, M.'
_publ_section_title
;
 Magnetic study on Mn4 N and its related compounds
;
_journal_name_full               'Journal of the Physical Society of Japan'
_journal_page_first              796
_journal_page_last               803
_journal_volume                  17
_journal_year                    1962
_chemical_formula_sum            'Mn4 N'
_space_group_IT_number           221
_symmetry_space_group_name_Hall  '-P 4 2 3'
_symmetry_space_group_name_H-M   'P m -3 m'
_cell_angle_alpha                90
_cell_angle_beta                 90
_cell_angle_gamma                90
_cell_formula_units_Z            1
_cell_length_a                   3.867
_cell_length_b                   3.867
_cell_length_c                   3.867
_cell_volume                     57.826
_citation_journal_id_ASTM        JUPSAU
_cod_data_source_file            Mekata_JUPSAU_1962_582.cif
_cod_data_source_block           Mn4N1
_cod_original_cell_volume        57.82592
_cod_original_formula_sum        'Mn4 N1'
_cod_database_code               1538842
loop_
_symmetry_equiv_pos_as_xyz
x,y,z
-y,x,z
-x,-y,z
y,-x,z
x,-y,-z
y,x,-z
-x,y,-z
-y,-x,-z
z,x,y
-x,z,y
-z,-x,y
x,-z,y
z,-x,-y
x,z,-y
-z,x,-y
-x,-z,-y
y,z,x
y,-z,-x
z,y,-x
-y,z,-x
-z,-y,-x
-y,-z,x
z,-y,x
-z,y,x
-x,-y,-z
y,-x,-z
x,y,-z
-y,x,-z
-x,y,z
-y,-x,z
x,-y,z
y,x,z
-z,-x,-y
x,-z,-y
z,x,-y
-x,z,-y
-z,x,y
-x,-z,y
z,-x,y
x,z,y
-y,-z,-x
-y,z,x
-z,-y,x
y,-z,x
z,y,x
y,z,-x
-z,y,-x
z,-y,-x
loop_
_atom_site_label
_atom_site_type_symbol
_atom_site_fract_x
_atom_site_fract_y
_atom_site_fract_z
_atom_site_occupancy
_atom_site_U_iso_or_equiv
N1 N 0 0 0 1 0.0
Mn1 Mn 0.5 0.5 0.5 1 0.0
Mn2 Mn 0 0.5 0.5 1 0.0
