#------------------------------------------------------------------------------
#$Date: 2017-03-04 01:07:24 +0200 (Sat, 04 Mar 2017) $
#$Revision: 192856 $
#$URL: file:///home/coder/svn-repositories/cod/cif/4/00/27/4002733.cif $
#------------------------------------------------------------------------------
#
# This file is available in the Crystallography Open Database (COD),
# http://www.crystallography.net/
#
# All data on this site have been placed in the public domain by the
# contributors.
#
data_4002733
loop_
_publ_author_name
'Li, Xiaohui'
'Wang, Xiaoming'
'Han, Yifeng'
'Jing, Xiping'
'Huang, Qingzhen'
'Kuang, Xiaojun'
'Gao, Qilong'
'Chen, Jun'
'Xing, Xianran'
_publ_section_title
;
 High-Dielectric-Permittivity Layered Nitride CaTiN2
;
_journal_name_full               'Chemistry of Materials'
_journal_paper_doi               10.1021/acs.chemmater.6b05226
_journal_year                    2017
_chemical_formula_sum            'Ca N2 Ti'
_chemical_formula_weight         115.97
_chemical_name_mineral           'titannium nitride'
_space_group_IT_number           31
_symmetry_cell_setting           orthorhombic
_symmetry_Int_Tables_number      31
_symmetry_space_group_name_Hall  'P -2ab 2ab'
_symmetry_space_group_name_H-M   'P 21 m n'
_cell_angle_alpha                90
_cell_angle_beta                 90
_cell_angle_gamma                90
_cell_formula_units_Z            2
_cell_length_a                   3.9365(6)
_cell_length_b                   3.6137(5)
_cell_length_c                   7.543(1)
_cell_measurement_temperature    293(2)
_cell_measurement_theta_max      77.375
_cell_measurement_theta_min      5.025
_cell_volume                     107.30(3)
_diffrn_ambient_temperature      293(2)
_diffrn_measured_fraction_theta_full 1.000
_diffrn_measurement_device_type  BT1
_diffrn_radiation_wavelength     1.5397
_diffrn_reflns_number            152
_exptl_crystal_description       black
_cod_data_source_file            cm6b05226_si_002.cif
_cod_data_source_block           CaTiN2_P21mn
_cod_depositor_comments
;
The following automatic conversions were performed:

'_symmetry_cell_setting' value 'Orthorhombic' changed to
'orthorhombic' according to
/home/data/users/saulius/crontab/automatic-downloads/rss-feeds/ACS/lib/dictionaries/cif_core.dic
dictionary named 'cif_core.dic' version 2.4.2 from 2011-04-26.

Automatic conversion script
Id: cif_fix_values 4973 2017-02-22 13:04:09Z antanas 
;
_cod_original_cell_volume        107.288(41)
_cod_original_formula_sum        'Ca1 N2 Ti1'
_cod_database_code               4002733
loop_
_symmetry_equiv_pos_as_xyz
'x, -y, z'
'x, y, z'
'x+1/2, -y+1/2, -z'
'x+1/2, y+1/2, -z'
loop_
_atom_site_label
_atom_site_type_symbol
_atom_site_symmetry_multiplicity
_atom_site_fract_x
_atom_site_fract_y
_atom_site_fract_z
_atom_site_occupancy
_atom_site_B_iso_or_equiv
Ca Ca 2 0.086(1) 0 0.849(1) 1 1.02(1)
Ti Ti 2 0.082(1) 0 0.410(2) 1 0.90(8)
N1 N 2 0.5884(1) 0 0.4726(8) 1 1.04(2)
N2 N 2 0.1197(1) 0 0.1627(8) 1 1.03(1)
