#------------------------------------------------------------------------------
#$Date: 2016-02-13 21:28:24 +0200 (Sat, 13 Feb 2016) $
#$Revision: 176429 $
#$URL: svn://www.crystallography.net/cod/cif/4/00/25/4002500.cif $
#------------------------------------------------------------------------------
#
# This file is available in the Crystallography Open Database (COD),
# http://www.crystallography.net/
#
# All data on this site have been placed in the public domain by the
# contributors.
#
data_4002500
loop_
_publ_author_name
'Gregory, D.H.'
'O'Meara, P.M.'
'Gordon, A.G.'
'Hodges, J.P.'
'Short, S.'
'Jorgensen, J.D.'
_publ_section_title
;
 Structure of lithium nitride and transition-metal-doped derivatives,
 Li3-x-y Mx N (M = Ni, Cu): a powder neutron diffraction study
;
_journal_name_full               'Chemistry of Materials (1,1989-)'
_journal_page_first              2063
_journal_page_last               2070
_journal_volume                  14
_journal_year                    2002
_chemical_formula_sum            'Li1.35 N Ni0.79'
_chemical_name_systematic        '(Li0.21 Ni0.79) Li1.14 N'
_space_group_IT_number           191
_symmetry_space_group_name_Hall  '-P 6 2'
_symmetry_space_group_name_H-M   'P 6/m m m'
_cell_angle_alpha                90
_cell_angle_beta                 90
_cell_angle_gamma                120
_cell_formula_units_Z            1
_cell_length_a                   3.7696
_cell_length_b                   3.7696
_cell_length_c                   3.527
_cell_volume                     43.404
_citation_journal_id_ASTM        CMATEX
_cod_data_source_file            Gregory_CMATEX_2002_1124.cif
_cod_data_source_block           Li1.35N1Ni0.79
_cod_original_cell_volume        43.40369
_cod_original_formula_sum        'Li1.35 N1 Ni0.79'
_cod_database_code               4002500
loop_
_symmetry_equiv_pos_as_xyz
x,y,z
x-y,x,z
-y,x-y,z
-x,-y,z
-x+y,-x,z
y,-x+y,z
-y,-x,-z
x-y,-y,-z
x,x-y,-z
y,x,-z
-x+y,y,-z
-x,-x+y,-z
-x,-y,-z
-x+y,-x,-z
y,-x+y,-z
x,y,-z
x-y,x,-z
-y,x-y,-z
y,x,z
-x+y,y,z
-x,-x+y,z
-y,-x,z
x-y,-y,z
x,x-y,z
loop_
_atom_site_label
_atom_site_type_symbol
_atom_site_fract_x
_atom_site_fract_y
_atom_site_fract_z
_atom_site_occupancy
_atom_site_U_iso_or_equiv
Ni1 Ni+2 0 0 0.5 0.79 0.0
Li2 Li+1 0.6667 0.3333 0 0.57 0.0
Li1 Li+1 0 0 0.5 0.21 0.0
N1 N-3 0 0 0 1 0.0
