#------------------------------------------------------------------------------
#$Date: 2016-03-02 09:51:31 +0200 (Wed, 02 Mar 2016) $
#$Revision: 177123 $
#$URL: svn://www.crystallography.net/cod/cif/5/91/02/5910214.cif $
#------------------------------------------------------------------------------
#
# This file is available in the Crystallography Open Database (COD),
# http://www.crystallography.net/
#
# All data on this site have been placed in the public domain by the
# contributors.
#
data_5910214
loop_
_publ_author_name
'Wyckoff, R. W. G.'
_publ_section_title
;
Pages 57 from the Structure of Crystals, vol. 4 by Wyckoff R W G. 
published by Interscience Publishers, Inc. in 1951 
;
_journal_name_full               'The Structure of Crystals'
_journal_page_first              57
_journal_page_last               57
_journal_volume                  4
_journal_year                    1951
_chemical_formula_structural     Li3GaN2
_chemical_formula_sum            'Ga Li3 N2'
_space_group_IT_number           206
_symmetry_cell_setting           cubic
_symmetry_Int_Tables_number      206
_symmetry_space_group_name_Hall  '-I 2b 2c 3'
_symmetry_space_group_name_H-M   'I a -3'
_audit_creation_date             2006-24-10
_audit_creation_method
;
Pages 57 from the Structure of Crystals, vol. 4 by Wyckoff R W G. 
published by Interscience Publishers, Inc. in 1951 
;
_audit_update_record
'created by Girish Upreti, Portland State University'
_cell_angle_alpha                90
_cell_angle_beta                 90
_cell_angle_gamma                90
_cell_length_a                   9.613
_cell_length_b                   9.613
_cell_length_c                   9.613
_cell_volume                     888.335
_cod_original_formula_sum        'Li3 Ga N2'
_cod_database_code               5910214
loop_
_symmetry_equiv_pos_as_xyz
x,y,z
z,x,y
y,z,x
-y,-z+1/2,x
z,-x,-y+1/2
-y+1/2,z,-x
-z,-x+1/2,y
-z+1/2,x,-y
y,-z,-x+1/2
x,-y,-z+1/2
-x+1/2,y,-z
-x,-y+1/2,z
-x,-y,-z
-z,-x,-y
-y,-z,-x
y,z+1/2,-x
-z,x,y+1/2
y+1/2,-z,x
z,x+1/2,-y
z+1/2,-x,y
-y,z,x+1/2
-x,y,z+1/2
x+1/2,-y,z
x,y+1/2,-z
x+1/2,y+1/2,z+1/2
z+1/2,x+1/2,y+1/2
y+1/2,z+1/2,x+1/2
-y+1/2,-z,x+1/2
z+1/2,-x+1/2,-y
-y,z+1/2,-x+1/2
-z+1/2,-x,y+1/2
-z,x+1/2,-y+1/2
y+1/2,-z+1/2,-x
x+1/2,-y+1/2,-z
-x,y+1/2,-z+1/2
-x+1/2,-y,z+1/2
-x+1/2,-y+1/2,-z+1/2
-z+1/2,-x+1/2,-y+1/2
-y+1/2,-z+1/2,-x+1/2
y+1/2,z,-x+1/2
-z+1/2,x+1/2,y
y,-z+1/2,x+1/2
z+1/2,x,-y+1/2
z,-x+1/2,y+1/2
-y+1/2,z+1/2,x
-x+1/2,y+1/2,z
x,-y+1/2,z+1/2
x+1/2,y,-z+1/2
loop_
_atom_site_fract_x
_atom_site_fract_y
_atom_site_fract_z
_atom_site_label
0.11700 0.11700 0.11700 Ga1
0.61700 0.38300 -0.11700 Ga2
-0.11700 0.61700 0.38700 Ga3
0.38700 -0.11700 0.61700 Ga4
-0.11700 -0.11700 -0.11700 Ga5
-0.61700 -0.38300 0.11700 Ga6
0.11700 -0.61700 -0.38700 Ga7
-0.38700 0.11700 -0.61700 Ga8
0.00000 0.00000 0.00000 N1
0.50000 0.50000 0.00000 N2
0.50000 0.00000 0.50000 N3
0.00000 0.50000 0.50000 N4
0.21500 0.00000 0.25000 N5
-0.21500 0.50000 0.25000 N6
-0.21500 0.00000 -0.25000 N7
0.21500 -0.50000 -0.25000 N8
0.15200 0.38100 0.11400 Li9
0.15200 -0.38100 0.38600 Li10
0.11400 -0.15200 0.11900 Li11
0.38100 -0.11400 0.34800 Li12
-0.15200 -0.38100 -0.11400 Li13
-0.15200 0.38100 -0.38600 Li14
-0.11400 0.15200 -0.11900 Li15
-0.38100 0.11400 -0.34800 Li16
