#------------------------------------------------------------------------------
#$Date: 2019-10-01 11:18:04 +0300 (Tue, 01 Oct 2019) $
#$Revision: 218956 $
#$URL: file:///home/coder/svn-repositories/cod/cif/7/23/42/7234259.cif $
#------------------------------------------------------------------------------
#
# This file is available in the Crystallography Open Database (COD),
# http://www.crystallography.net/
#
# All data on this site have been placed in the public domain by the
# contributors.
#
data_7234259
loop_
_publ_author_name
'Hua Cai'
'Peipei Liang'
'Rene Hubner'
'Shengqiang Zhou'
'Yanli Li'
'Jian Sun'
'Ning Xu'
'Jiada Wu'
_publ_section_title
;
 Composition and bandgap control of AlxGa1-xN films synthesized by
 plasma-assisted pulsed laser deposition
;
_journal_name_full               'Journal of Materials Chemistry C'
_journal_page_first              5307
_journal_page_last               5315
_journal_paper_doi               10.1039/C5TC00475F
_journal_volume                  3
_journal_year                    2015
_chemical_formula_structural     'Ga N'
_chemical_formula_sum            'Ga N'
_chemical_name_systematic        'Gallium Nitride - Thick Layer'
_space_group_IT_number           186
_space_group_name_Hall           'P 6c -2c'
_space_group_name_H-M_alt        'P 63 m c'
_symmetry_Int_Tables_number      186
_symmetry_space_group_name_H-M   'P 63 m c'
_cell_angle_alpha                90.
_cell_angle_beta                 90.
_cell_angle_gamma                120.
_cell_formula_units_Z            2
_cell_length_a                   3.1972(12)
_cell_length_b                   3.1972(12)
_cell_length_c                   5.207(3)
_cell_volume                     46.10(4)
_refine_ls_R_factor_all          .0088
_cod_data_source_file            J-Mater-Chem-C-2015-3-5307.cif
_cod_data_source_block           2
_cod_original_cell_volume        46.1
_cod_original_formula_sum        'Ga1 N1'
_cod_database_code               7234259
loop_
_symmetry_equiv_pos_site_id
_symmetry_equiv_pos_as_xyz
1 '-x, -x+y, z+.5'
2 'x-y, -y, z+.5'
3 'y, x, z+.5'
4 'x-y, x, z+.5'
5 'y, -x+y, z+.5'
6 '-x, -y, z+.5'
7 'x, x-y, z'
8 '-x+y, y, z'
9 '-y, -x, z'
10 '-x+y, -x, z'
11 '-y, x-y, z'
12 'x, y, z'
loop_
_atom_site_aniso_label
_atom_site_aniso_type_symbol
_atom_site_aniso_U_11
_atom_site_aniso_U_22
_atom_site_aniso_U_33
_atom_site_aniso_U_12
_atom_site_aniso_U_13
_atom_site_aniso_U_23
Ga1 Ga3+ 0.002(1) 0.002(1) 0.003(1) 0. 0. 0.
N1 N3- 0.003(1) 0.003(1) 0.004(1) 0. 0. 0.
loop_
_atom_site_label
_atom_site_type_symbol
_atom_site_symmetry_multiplicity
_atom_site_Wyckoff_symbol
_atom_site_fract_x
_atom_site_fract_y
_atom_site_fract_z
_atom_site_occupancy
_atom_site_attached_hydrogens
Ga1 Ga3+ 2 b 0.6667 0.3333 0.5912(2) 1. 0
N1 N3- 2 b 0.6667 0.3333 0.9688(2) 1. 0
loop_
_atom_type_symbol
_atom_type_oxidation_number
Ga3+ 3
N3- -3
