#------------------------------------------------------------------------------
#$Date: 2013-05-05 17:21:46 +0300 (Sun, 05 May 2013) $
#$Revision: 85285 $
#$URL: svn://www.crystallography.net/cod/cif/9/00/81/9008165.cif $
#------------------------------------------------------------------------------
#
# This file is available in the Crystallography Open Database (COD),
# http://www.crystallography.net/. The original data for this entry
# were provided the American Mineralogist Crystal Structure Database,
# http://rruff.geo.arizona.edu/AMS/amcsd.php
#
# The file may be used within the scientific community so long as
# proper attribution is given to the journal article from which the
# data were obtained.
#
data_9008165
loop_
_publ_author_name
'Walitzi, E. M.'
'Krischner, H.'
_publ_section_title
;
 Strukturuntersuchungen an bariumazid Ba(N3)2
;
_journal_name_full               'Zeitschrift fur Kristallographie'
_journal_page_first              153
_journal_page_last               156
_journal_volume                  129
_journal_year                    1969
_chemical_formula_structural     Ba(N3)2
_chemical_formula_sum            'Ba N6'
_space_group_IT_number           11
_symmetry_space_group_name_Hall  '-P 2yb'
_symmetry_space_group_name_H-M   'P 1 21/m 1'
_cell_angle_alpha                90
_cell_angle_beta                 99.57
_cell_angle_gamma                90
_cell_length_a                   9.63
_cell_length_b                   4.41
_cell_length_c                   5.43
_cell_volume                     227.394
_exptl_crystal_density_diffrn    3.233
_cod_database_code               9008165
loop_
_symmetry_equiv_pos_as_xyz
x,y,z
x,1/2-y,z
-x,1/2+y,-z
-x,-y,-z
loop_
_atom_site_label
_atom_site_fract_x
_atom_site_fract_y
_atom_site_fract_z
Ba 0.21800 0.25000 0.17200
N1 0.10000 0.75000 0.86900
N2 0.10800 0.75000 0.66100
N3 0.11700 0.75000 0.44800
N4 0.41700 0.75000 0.22400
N5 0.46100 0.25000 0.74700
N6 0.33900 0.25000 0.70800
